v 0 eval {set sim_annotation {0 sending message 1}}
s 0.000000000 _0_ AGT  --- 0 message 500 [0 0 0 0] ------- [0:8 7:7 32 0] 
s 0.000000000 _0_ AGT  --- 1 message 500 [0 0 0 0] ------- [0:8 8:7 32 0] 
v 0 eval {set sim_annotation {3 sending message 2}}
s 0.000000000 _3_ AGT  --- 2 message 500 [0 0 0 0] ------- [3:8 7:8 32 0] 
s 0.000000000 _3_ AGT  --- 3 message 500 [0 0 0 0] ------- [3:8 8:8 32 0] 
s 0.000095000 _3_ MAC  --- 0 ARP 86 [0 ffffffff 3 806] ------- [REQUEST 3/3 0/7]
r 0.000783186 _4_ MAC  --- 0 ARP 28 [0 ffffffff 3 806] ------- [REQUEST 3/3 0/7]
r 0.000783236 _1_ MAC  --- 0 ARP 28 [0 ffffffff 3 806] ------- [REQUEST 3/3 0/7]
r 0.000783300 _2_ MAC  --- 0 ARP 28 [0 ffffffff 3 806] ------- [REQUEST 3/3 0/7]
r 0.000783333 _0_ MAC  --- 0 ARP 28 [0 ffffffff 3 806] ------- [REQUEST 3/3 0/7]
r 0.000783344 _6_ MAC  --- 0 ARP 28 [0 ffffffff 3 806] ------- [REQUEST 3/3 0/7]
r 0.000783417 _5_ MAC  --- 0 ARP 28 [0 ffffffff 3 806] ------- [REQUEST 3/3 0/7]
r 0.000783507 _8_ MAC  --- 0 ARP 28 [0 ffffffff 3 806] ------- [REQUEST 3/3 0/7]
r 0.000783559 _7_ MAC  --- 0 ARP 28 [0 ffffffff 3 806] ------- [REQUEST 3/3 0/7]
s 0.001138559 _7_ MAC  --- 0 RTS 44 [52e 3 7 0] 
r 0.001491118 _3_ MAC  --- 0 RTS 44 [52e 3 7 0] 
s 0.001501118 _3_ MAC  --- 0 CTS 38 [3f4 7 0 0] 
r 0.001805677 _7_ MAC  --- 0 CTS 38 [3f4 7 0 0] 
s 0.001815677 _7_ MAC  --- 0 ARP 86 [13a 3 7 806] ------- [REPLY 7/7 3/3]
r 0.002504236 _3_ MAC  --- 0 ARP 28 [13a 3 7 806] ------- [REPLY 7/7 3/3]
s 0.002514236 _3_ MAC  --- 0 ACK 38 [0 7 0 0] 
r 0.002818795 _7_ MAC  --- 0 ACK 38 [0 7 0 0] 
s 0.002988569 _0_ MAC  --- 0 ARP 86 [0 ffffffff 0 806] ------- [REQUEST 0/0 0/7]
r 0.003676756 _2_ MAC  --- 0 ARP 28 [0 ffffffff 0 806] ------- [REQUEST 0/0 0/7]
r 0.003676805 _1_ MAC  --- 0 ARP 28 [0 ffffffff 0 806] ------- [REQUEST 0/0 0/7]
r 0.003676870 _4_ MAC  --- 0 ARP 28 [0 ffffffff 0 806] ------- [REQUEST 0/0 0/7]
r 0.003676903 _3_ MAC  --- 0 ARP 28 [0 ffffffff 0 806] ------- [REQUEST 0/0 0/7]
r 0.003676913 _5_ MAC  --- 0 ARP 28 [0 ffffffff 0 806] ------- [REQUEST 0/0 0/7]
r 0.003676986 _6_ MAC  --- 0 ARP 28 [0 ffffffff 0 806] ------- [REQUEST 0/0 0/7]
r 0.003677076 _7_ MAC  --- 0 ARP 28 [0 ffffffff 0 806] ------- [REQUEST 0/0 0/7]
r 0.003677128 _8_ MAC  --- 0 ARP 28 [0 ffffffff 0 806] ------- [REQUEST 0/0 0/7]
s 0.003726569 _0_ MAC  --- 0 ARP 86 [0 ffffffff 0 806] ------- [REQUEST 0/0 0/8]
r 0.004414756 _2_ MAC  --- 0 ARP 28 [0 ffffffff 0 806] ------- [REQUEST 0/0 0/8]
r 0.004414805 _1_ MAC  --- 0 ARP 28 [0 ffffffff 0 806] ------- [REQUEST 0/0 0/8]
r 0.004414870 _4_ MAC  --- 0 ARP 28 [0 ffffffff 0 806] ------- [REQUEST 0/0 0/8]
r 0.004414903 _3_ MAC  --- 0 ARP 28 [0 ffffffff 0 806] ------- [REQUEST 0/0 0/8]
r 0.004414913 _5_ MAC  --- 0 ARP 28 [0 ffffffff 0 806] ------- [REQUEST 0/0 0/8]
r 0.004414986 _6_ MAC  --- 0 ARP 28 [0 ffffffff 0 806] ------- [REQUEST 0/0 0/8]
r 0.004415076 _7_ MAC  --- 0 ARP 28 [0 ffffffff 0 806] ------- [REQUEST 0/0 0/8]
r 0.004415128 _8_ MAC  --- 0 ARP 28 [0 ffffffff 0 806] ------- [REQUEST 0/0 0/8]
s 0.004604903 _3_ MAC  --- 0 ARP 86 [0 ffffffff 3 806] ------- [REQUEST 3/3 0/8]
r 0.005293089 _4_ MAC  --- 0 ARP 28 [0 ffffffff 3 806] ------- [REQUEST 3/3 0/8]
r 0.005293138 _1_ MAC  --- 0 ARP 28 [0 ffffffff 3 806] ------- [REQUEST 3/3 0/8]
r 0.005293203 _2_ MAC  --- 0 ARP 28 [0 ffffffff 3 806] ------- [REQUEST 3/3 0/8]
r 0.005293236 _0_ MAC  --- 0 ARP 28 [0 ffffffff 3 806] ------- [REQUEST 3/3 0/8]
r 0.005293246 _6_ MAC  --- 0 ARP 28 [0 ffffffff 3 806] ------- [REQUEST 3/3 0/8]
r 0.005293319 _5_ MAC  --- 0 ARP 28 [0 ffffffff 3 806] ------- [REQUEST 3/3 0/8]
r 0.005293410 _8_ MAC  --- 0 ARP 28 [0 ffffffff 3 806] ------- [REQUEST 3/3 0/8]
r 0.005293462 _7_ MAC  --- 0 ARP 28 [0 ffffffff 3 806] ------- [REQUEST 3/3 0/8]
s 0.005403462 _7_ MAC  --- 0 RTS 44 [52e 0 7 0] 
r 0.005755969 _0_ MAC  --- 0 RTS 44 [52e 0 7 0] 
s 0.005765969 _0_ MAC  --- 0 CTS 38 [3f4 7 0 0] 
r 0.006070476 _7_ MAC  --- 0 CTS 38 [3f4 7 0 0] 
s 0.006080476 _7_ MAC  --- 0 ARP 86 [13a 0 7 806] ------- [REPLY 7/7 0/0]
r 0.006768982 _0_ MAC  --- 0 ARP 28 [13a 0 7 806] ------- [REPLY 7/7 0/0]
s 0.006778982 _0_ MAC  --- 0 ACK 38 [0 7 0 0] 
r 0.007083489 _7_ MAC  --- 0 ACK 38 [0 7 0 0] 
s 0.007153541 _8_ MAC  --- 0 RTS 44 [52e 0 8 0] 
r 0.007506100 _0_ MAC  --- 0 RTS 44 [52e 0 8 0] 
s 0.007516100 _0_ MAC  --- 0 CTS 38 [3f4 8 0 0] 
r 0.007820659 _8_ MAC  --- 0 CTS 38 [3f4 8 0 0] 
s 0.007830659 _8_ MAC  --- 0 ARP 86 [13a 0 8 806] ------- [REPLY 8/8 0/0]
r 0.008519219 _0_ MAC  --- 0 ARP 28 [13a 0 8 806] ------- [REPLY 8/8 0/0]
s 0.008529219 _0_ MAC  --- 0 ACK 38 [0 8 0 0] 
r 0.008833778 _8_ MAC  --- 0 ACK 38 [0 8 0 0] 
s 0.009043552 _3_ MAC  --- 0 RTS 44 [13ee 7 3 0] 
r 0.009396111 _7_ MAC  --- 0 RTS 44 [13ee 7 3 0] 
s 0.009406111 _7_ MAC  --- 0 CTS 38 [12b4 3 0 0] 
r 0.009710670 _3_ MAC  --- 0 CTS 38 [12b4 3 0 0] 
s 0.009720670 _3_ MAC  --- 2 message 558 [13a 7 3 800] ------- [3:8 7:8 32 0] 
r 0.014185229 _7_ MAC  --- 2 message 500 [13a 7 3 800] ------- [3:8 7:8 32 0] 
s 0.014195229 _7_ MAC  --- 0 ACK 38 [0 3 0 0] 
r 0.014210229 _7_ AGT  --- 2 message 500 [13a 7 3 800] ------- [3:8 7:8 32 0] 
v 0.014210228894565073 eval {set sim_annotation {7 received {2:second_message} from 3}}
v 0.014210228894565073 eval {set sim_annotation {7 sending message 2}}
s 0.014210229 _7_ AGT  --- 4 message 500 [0 0 0 0] ------- [7:8 7:8 32 0] 
r 0.014210229 _7_ AGT  --- 4 message 500 [0 0 0 0] ------- [7:8 7:8 32 0] 
s 0.014210229 _7_ AGT  --- 5 message 500 [0 0 0 0] ------- [7:8 8:8 32 0] 
r 0.014499788 _3_ MAC  --- 0 ACK 38 [0 3 0 0] 
s 0.014629229 _7_ MAC  --- 0 ARP 86 [0 ffffffff 7 806] ------- [REQUEST 7/7 0/8]
s 0.014629396 _8_ MAC  --- 0 RTS 44 [52e 3 8 0] 
D 0.014629902 _3_ MAC  COL 0 RTS 44 [52e 3 8 0] 
D 0.015317396 _5_ MAC  COL 0 ARP 86 [0 ffffffff 7 806] ------- [REQUEST 7/7 0/8]
D 0.015317465 _6_ MAC  COL 0 ARP 86 [0 ffffffff 7 806] ------- [REQUEST 7/7 0/8]
D 0.015317562 _2_ MAC  COL 0 ARP 86 [0 ffffffff 7 806] ------- [REQUEST 7/7 0/8]
D 0.015317602 _4_ MAC  COL 0 ARP 86 [0 ffffffff 7 806] ------- [REQUEST 7/7 0/8]
D 0.015317736 _0_ MAC  COL 0 ARP 86 [0 ffffffff 7 806] ------- [REQUEST 7/7 0/8]
D 0.015317788 _3_ MAC  COL 0 ARP 86 [0 ffffffff 7 806] ------- [REQUEST 7/7 0/8]
D 0.015317901 _1_ MAC  COL 0 ARP 86 [0 ffffffff 7 806] ------- [REQUEST 7/7 0/8]
s 0.015831736 _0_ MAC  --- 0 RTS 44 [13ee 7 0 0] 
r 0.016184243 _7_ MAC  --- 0 RTS 44 [13ee 7 0 0] 
s 0.016194243 _7_ MAC  --- 0 CTS 38 [12b4 0 0 0] 
r 0.016498750 _0_ MAC  --- 0 CTS 38 [12b4 0 0 0] 
s 0.016508750 _0_ MAC  --- 0 message 558 [13a 7 0 800] ------- [0:8 7:7 32 0] 
r 0.020973256 _7_ MAC  --- 0 message 500 [13a 7 0 800] ------- [0:8 7:7 32 0] 
s 0.020983256 _7_ MAC  --- 0 ACK 38 [0 0 0 0] 
r 0.020998256 _7_ AGT  --- 0 message 500 [13a 7 0 800] ------- [0:8 7:7 32 0] 
s 0.020998256 _7_ AGT  --- 6 message 500 [0 0 0 0] ------- [7:8 7:8 32 0] 
r 0.020998256 _7_ AGT  --- 6 message 500 [0 0 0 0] ------- [7:8 7:8 32 0] 
s 0.020998256 _7_ AGT  --- 7 message 500 [0 0 0 0] ------- [7:8 8:8 32 0] 
D 0.020998256 _7_ IFQ  ARP 5 message 500 [0 0 7 800] ------- [7:8 8:8 32 0] 
r 0.021287763 _0_ MAC  --- 0 ACK 38 [0 0 0 0] 
s 0.021577763 _0_ MAC  --- 0 RTS 44 [13ee 8 0 0] 
r 0.021930322 _8_ MAC  --- 0 RTS 44 [13ee 8 0 0] 
s 0.021940322 _8_ MAC  --- 0 CTS 38 [12b4 0 0 0] 
r 0.022244881 _0_ MAC  --- 0 CTS 38 [12b4 0 0 0] 
s 0.022254881 _0_ MAC  --- 1 message 558 [13a 8 0 800] ------- [0:8 8:7 32 0] 
r 0.026719440 _8_ MAC  --- 1 message 500 [13a 8 0 800] ------- [0:8 8:7 32 0] 
s 0.026729440 _8_ MAC  --- 0 ACK 38 [0 0 0 0] 
r 0.026744440 _8_ AGT  --- 1 message 500 [13a 8 0 800] ------- [0:8 8:7 32 0] 
v 0.026744440429935817 eval {set sim_annotation {8 received {1:first_message} from 0}}
v 0.026744440429935817 eval {set sim_annotation {8 sending message 1}}
s 0.026744440 _8_ AGT  --- 8 message 500 [0 0 0 0] ------- [8:8 7:8 32 0] 
s 0.026744440 _8_ AGT  --- 9 message 500 [0 0 0 0] ------- [8:8 8:8 32 0] 
r 0.026744440 _8_ AGT  --- 9 message 500 [0 0 0 0] ------- [8:8 8:8 32 0] 
r 0.027033999 _0_ MAC  --- 0 ACK 38 [0 0 0 0] 
s 0.027203607 _7_ MAC  --- 0 ARP 86 [0 ffffffff 7 806] ------- [REQUEST 7/7 0/8]
r 0.027891774 _5_ MAC  --- 0 ARP 28 [0 ffffffff 7 806] ------- [REQUEST 7/7 0/8]
r 0.027891774 _8_ MAC  --- 0 ARP 28 [0 ffffffff 7 806] ------- [REQUEST 7/7 0/8]
r 0.027891843 _6_ MAC  --- 0 ARP 28 [0 ffffffff 7 806] ------- [REQUEST 7/7 0/8]
r 0.027891940 _2_ MAC  --- 0 ARP 28 [0 ffffffff 7 806] ------- [REQUEST 7/7 0/8]
r 0.027891980 _4_ MAC  --- 0 ARP 28 [0 ffffffff 7 806] ------- [REQUEST 7/7 0/8]
r 0.027892114 _0_ MAC  --- 0 ARP 28 [0 ffffffff 7 806] ------- [REQUEST 7/7 0/8]
r 0.027892166 _3_ MAC  --- 0 ARP 28 [0 ffffffff 7 806] ------- [REQUEST 7/7 0/8]
r 0.027892279 _1_ MAC  --- 0 ARP 28 [0 ffffffff 7 806] ------- [REQUEST 7/7 0/8]
s 0.028581774 _8_ MAC  --- 0 RTS 44 [52e 3 8 0] 
r 0.028934281 _3_ MAC  --- 0 RTS 44 [52e 3 8 0] 
s 0.028944281 _3_ MAC  --- 0 CTS 38 [3f4 8 0 0] 
r 0.029248788 _8_ MAC  --- 0 CTS 38 [3f4 8 0 0] 
s 0.029258788 _8_ MAC  --- 0 ARP 86 [13a 3 8 806] ------- [REPLY 8/8 3/3]
r 0.029947294 _3_ MAC  --- 0 ARP 28 [13a 3 8 806] ------- [REPLY 8/8 3/3]
s 0.029957294 _3_ MAC  --- 0 ACK 38 [0 8 0 0] 
r 0.030261801 _8_ MAC  --- 0 ACK 38 [0 8 0 0] 
s 0.030631801 _8_ MAC  --- 0 RTS 44 [13ee 7 8 0] 
r 0.030983968 _7_ MAC  --- 0 RTS 44 [13ee 7 8 0] 
s 0.030993968 _7_ MAC  --- 0 CTS 38 [12b4 8 0 0] 
r 0.031298135 _8_ MAC  --- 0 CTS 38 [12b4 8 0 0] 
s 0.031308135 _8_ MAC  --- 8 message 558 [13a 7 8 800] ------- [8:8 7:8 32 0] 
r 0.035772301 _7_ MAC  --- 8 message 500 [13a 7 8 800] ------- [8:8 7:8 32 0] 
s 0.035782301 _7_ MAC  --- 0 ACK 38 [0 8 0 0] 
r 0.035797301 _7_ AGT  --- 8 message 500 [13a 7 8 800] ------- [8:8 7:8 32 0] 
r 0.036086468 _8_ MAC  --- 0 ACK 38 [0 8 0 0] 
s 0.036156860 _3_ MAC  --- 0 RTS 44 [13ee 8 3 0] 
r 0.036509367 _8_ MAC  --- 0 RTS 44 [13ee 8 3 0] 
s 0.036519367 _8_ MAC  --- 0 CTS 38 [12b4 3 0 0] 
r 0.036823874 _3_ MAC  --- 0 CTS 38 [12b4 3 0 0] 
s 0.036833874 _3_ MAC  --- 3 message 558 [13a 8 3 800] ------- [3:8 8:8 32 0] 
r 0.041298381 _8_ MAC  --- 3 message 500 [13a 8 3 800] ------- [3:8 8:8 32 0] 
s 0.041308381 _8_ MAC  --- 0 ACK 38 [0 3 0 0] 
r 0.041323381 _8_ AGT  --- 3 message 500 [13a 8 3 800] ------- [3:8 8:8 32 0] 
s 0.041323381 _8_ AGT  --- 10 message 500 [0 0 0 0] ------- [8:8 7:8 32 0] 
s 0.041323381 _8_ AGT  --- 11 message 500 [0 0 0 0] ------- [8:8 8:8 32 0] 
r 0.041323381 _8_ AGT  --- 11 message 500 [0 0 0 0] ------- [8:8 8:8 32 0] 
r 0.041612888 _3_ MAC  --- 0 ACK 38 [0 3 0 0] 
s 0.041842381 _8_ MAC  --- 0 ARP 86 [0 ffffffff 8 806] ------- [REQUEST 8/8 0/7]
r 0.042530548 _7_ MAC  --- 0 ARP 28 [0 ffffffff 8 806] ------- [REQUEST 8/8 0/7]
r 0.042530548 _6_ MAC  --- 0 ARP 28 [0 ffffffff 8 806] ------- [REQUEST 8/8 0/7]
r 0.042530617 _5_ MAC  --- 0 ARP 28 [0 ffffffff 8 806] ------- [REQUEST 8/8 0/7]
r 0.042530714 _4_ MAC  --- 0 ARP 28 [0 ffffffff 8 806] ------- [REQUEST 8/8 0/7]
r 0.042530754 _2_ MAC  --- 0 ARP 28 [0 ffffffff 8 806] ------- [REQUEST 8/8 0/7]
r 0.042530888 _3_ MAC  --- 0 ARP 28 [0 ffffffff 8 806] ------- [REQUEST 8/8 0/7]
r 0.042530940 _0_ MAC  --- 0 ARP 28 [0 ffffffff 8 806] ------- [REQUEST 8/8 0/7]
r 0.042531053 _1_ MAC  --- 0 ARP 28 [0 ffffffff 8 806] ------- [REQUEST 8/8 0/7]
s 0.042600381 _8_ MAC  --- 0 RTS 44 [13ee 7 8 0] 
r 0.042952548 _7_ MAC  --- 0 RTS 44 [13ee 7 8 0] 
s 0.042962548 _7_ MAC  --- 0 CTS 38 [12b4 8 0 0] 
r 0.043266714 _8_ MAC  --- 0 CTS 38 [12b4 8 0 0] 
s 0.043276714 _8_ MAC  --- 10 message 558 [13a 7 8 800] ------- [8:8 7:8 32 0] 
r 0.047740881 _7_ MAC  --- 10 message 500 [13a 7 8 800] ------- [8:8 7:8 32 0] 
s 0.047750881 _7_ MAC  --- 0 ACK 38 [0 8 0 0] 
r 0.047765881 _7_ AGT  --- 10 message 500 [13a 7 8 800] ------- [8:8 7:8 32 0] 
r 0.048055048 _8_ MAC  --- 0 ACK 38 [0 8 0 0] 
s 0.048344881 _7_ MAC  --- 0 RTS 44 [13ee 8 7 0] 
r 0.048697048 _8_ MAC  --- 0 RTS 44 [13ee 8 7 0] 
s 0.048707048 _8_ MAC  --- 0 CTS 38 [12b4 7 0 0] 
r 0.049011214 _7_ MAC  --- 0 CTS 38 [12b4 7 0 0] 
s 0.049021214 _7_ MAC  --- 7 message 558 [13a 8 7 800] ------- [7:8 8:8 32 0] 
r 0.053485381 _8_ MAC  --- 7 message 500 [13a 8 7 800] ------- [7:8 8:8 32 0] 
s 0.053495381 _8_ MAC  --- 0 ACK 38 [0 7 0 0] 
r 0.053510381 _8_ AGT  --- 7 message 500 [13a 8 7 800] ------- [7:8 8:8 32 0] 
r 0.053799548 _7_ MAC  --- 0 ACK 38 [0 7 0 0] 
s 0.054029548 _7_ MAC  --- 0 RTS 44 [52e 8 7 0] 
r 0.054381714 _8_ MAC  --- 0 RTS 44 [52e 8 7 0] 
s 0.054391714 _8_ MAC  --- 0 CTS 38 [3f4 7 0 0] 
r 0.054695881 _7_ MAC  --- 0 CTS 38 [3f4 7 0 0] 
s 0.054705881 _7_ MAC  --- 0 ARP 86 [13a 8 7 806] ------- [REPLY 7/7 8/8]
r 0.055394048 _8_ MAC  --- 0 ARP 28 [13a 8 7 806] ------- [REPLY 7/7 8/8]
s 0.055404048 _8_ MAC  --- 0 ACK 38 [0 7 0 0] 
r 0.055708214 _7_ MAC  --- 0 ACK 38 [0 7 0 0] 
s 0.055798048 _8_ MAC  --- 0 RTS 44 [52e 7 8 0] 
r 0.056150214 _7_ MAC  --- 0 RTS 44 [52e 7 8 0] 
s 0.056160214 _7_ MAC  --- 0 CTS 38 [3f4 8 0 0] 
r 0.056464381 _8_ MAC  --- 0 CTS 38 [3f4 8 0 0] 
s 0.056474381 _8_ MAC  --- 0 ARP 86 [13a 7 8 806] ------- [REPLY 8/8 7/7]
r 0.057162548 _7_ MAC  --- 0 ARP 28 [13a 7 8 806] ------- [REPLY 8/8 7/7]
s 0.057172548 _7_ MAC  --- 0 ACK 38 [0 8 0 0] 
r 0.057476714 _8_ MAC  --- 0 ACK 38 [0 8 0 0] 
v 1 eval {set sim_annotation {0 sending message 1}}
s 1.000000000 _0_ AGT  --- 12 message 500 [0 0 0 0] ------- [0:8 7:7 32 0] 
s 1.000000000 _0_ AGT  --- 13 message 500 [0 0 0 0] ------- [0:8 8:7 32 0] 
v 1 eval {set sim_annotation {3 sending message 2}}
s 1.000000000 _3_ AGT  --- 14 message 500 [0 0 0 0] ------- [3:8 7:8 32 0] 
s 1.000000000 _3_ AGT  --- 15 message 500 [0 0 0 0] ------- [3:8 8:8 32 0] 
s 1.000435000 _3_ MAC  --- 0 RTS 44 [13ee 7 3 0] 
r 1.000787559 _7_ MAC  --- 0 RTS 44 [13ee 7 3 0] 
s 1.000797559 _7_ MAC  --- 0 CTS 38 [12b4 3 0 0] 
r 1.001102118 _3_ MAC  --- 0 CTS 38 [12b4 3 0 0] 
s 1.001112118 _3_ MAC  --- 14 message 558 [13a 7 3 800] ------- [3:8 7:8 32 0] 
r 1.005576677 _7_ MAC  --- 14 message 500 [13a 7 3 800] ------- [3:8 7:8 32 0] 
s 1.005586677 _7_ MAC  --- 0 ACK 38 [0 3 0 0] 
r 1.005601677 _7_ AGT  --- 14 message 500 [13a 7 3 800] ------- [3:8 7:8 32 0] 
v 1.0056016770509835 eval {set sim_annotation {7 received {2:second_message} from 3}}
v 1.0056016770509835 eval {set sim_annotation {7 sending message 2}}
r 1.005891236 _3_ MAC  --- 0 ACK 38 [0 3 0 0] 
s 1.005981236 _3_ MAC  --- 0 RTS 44 [13ee 8 3 0] 
r 1.006333743 _8_ MAC  --- 0 RTS 44 [13ee 8 3 0] 
s 1.006343743 _8_ MAC  --- 0 CTS 38 [12b4 3 0 0] 
r 1.006648250 _3_ MAC  --- 0 CTS 38 [12b4 3 0 0] 
s 1.006658250 _3_ MAC  --- 15 message 558 [13a 8 3 800] ------- [3:8 8:8 32 0] 
r 1.011122757 _8_ MAC  --- 15 message 500 [13a 8 3 800] ------- [3:8 8:8 32 0] 
s 1.011132757 _8_ MAC  --- 0 ACK 38 [0 3 0 0] 
r 1.011147757 _8_ AGT  --- 15 message 500 [13a 8 3 800] ------- [3:8 8:8 32 0] 
r 1.011437264 _3_ MAC  --- 0 ACK 38 [0 3 0 0] 
s 1.011627316 _0_ MAC  --- 0 RTS 44 [13ee 7 0 0] 
r 1.011979823 _7_ MAC  --- 0 RTS 44 [13ee 7 0 0] 
s 1.011989823 _7_ MAC  --- 0 CTS 38 [12b4 0 0 0] 
r 1.012294330 _0_ MAC  --- 0 CTS 38 [12b4 0 0 0] 
s 1.012304330 _0_ MAC  --- 12 message 558 [13a 7 0 800] ------- [0:8 7:7 32 0] 
r 1.016768836 _7_ MAC  --- 12 message 500 [13a 7 0 800] ------- [0:8 7:7 32 0] 
s 1.016778836 _7_ MAC  --- 0 ACK 38 [0 0 0 0] 
r 1.016793836 _7_ AGT  --- 12 message 500 [13a 7 0 800] ------- [0:8 7:7 32 0] 
r 1.017083343 _0_ MAC  --- 0 ACK 38 [0 0 0 0] 
s 1.017493343 _0_ MAC  --- 0 RTS 44 [13ee 8 0 0] 
r 1.017845902 _8_ MAC  --- 0 RTS 44 [13ee 8 0 0] 
s 1.017855902 _8_ MAC  --- 0 CTS 38 [12b4 0 0 0] 
r 1.018160461 _0_ MAC  --- 0 CTS 38 [12b4 0 0 0] 
s 1.018170461 _0_ MAC  --- 13 message 558 [13a 8 0 800] ------- [0:8 8:7 32 0] 
r 1.022635020 _8_ MAC  --- 13 message 500 [13a 8 0 800] ------- [0:8 8:7 32 0] 
s 1.022645020 _8_ MAC  --- 0 ACK 38 [0 0 0 0] 
r 1.022660020 _8_ AGT  --- 13 message 500 [13a 8 0 800] ------- [0:8 8:7 32 0] 
v 1.0226600204140996 eval {set sim_annotation {8 received {1:first_message} from 0}}
v 1.0226600204140996 eval {set sim_annotation {8 sending message 1}}
r 1.022949579 _0_ MAC  --- 0 ACK 38 [0 0 0 0] 
v 2 eval {set sim_annotation {0 sending message 1}}
s 2.000000000 _0_ AGT  --- 16 message 500 [0 0 0 0] ------- [0:8 7:7 32 0] 
s 2.000000000 _0_ AGT  --- 17 message 500 [0 0 0 0] ------- [0:8 8:7 32 0] 
v 2 eval {set sim_annotation {3 sending message 2}}
s 2.000000000 _3_ AGT  --- 18 message 500 [0 0 0 0] ------- [3:8 7:8 32 0] 
s 2.000000000 _3_ AGT  --- 19 message 500 [0 0 0 0] ------- [3:8 8:8 32 0] 
s 2.000155000 _0_ MAC  --- 0 RTS 44 [13ee 7 0 0] 
r 2.000507507 _7_ MAC  --- 0 RTS 44 [13ee 7 0 0] 
s 2.000517507 _7_ MAC  --- 0 CTS 38 [12b4 0 0 0] 
r 2.000822014 _0_ MAC  --- 0 CTS 38 [12b4 0 0 0] 
s 2.000832014 _0_ MAC  --- 16 message 558 [13a 7 0 800] ------- [0:8 7:7 32 0] 
r 2.005296521 _7_ MAC  --- 16 message 500 [13a 7 0 800] ------- [0:8 7:7 32 0] 
s 2.005306521 _7_ MAC  --- 0 ACK 38 [0 0 0 0] 
r 2.005321521 _7_ AGT  --- 16 message 500 [13a 7 0 800] ------- [0:8 7:7 32 0] 
r 2.005611028 _0_ MAC  --- 0 ACK 38 [0 0 0 0] 
s 2.005861028 _0_ MAC  --- 0 RTS 44 [13ee 8 0 0] 
s 2.005861080 _3_ MAC  --- 0 RTS 44 [13ee 7 3 0] 
D 2.005861587 _8_ MAC  COL 0 RTS 44 [13ee 8 0 0] 
D 2.006213639 _7_ MAC  COL 0 RTS 44 [13ee 7 3 0] 
s 2.007187361 _3_ MAC  --- 0 RTS 44 [13ee 7 3 0] 
r 2.007539920 _7_ MAC  --- 0 RTS 44 [13ee 7 3 0] 
s 2.007549920 _7_ MAC  --- 0 CTS 38 [12b4 3 0 0] 
r 2.007854479 _3_ MAC  --- 0 CTS 38 [12b4 3 0 0] 
s 2.007864479 _3_ MAC  --- 18 message 558 [13a 7 3 800] ------- [3:8 7:8 32 0] 
r 2.012329038 _7_ MAC  --- 18 message 500 [13a 7 3 800] ------- [3:8 7:8 32 0] 
s 2.012339038 _7_ MAC  --- 0 ACK 38 [0 3 0 0] 
r 2.012354038 _7_ AGT  --- 18 message 500 [13a 7 3 800] ------- [3:8 7:8 32 0] 
v 2.0123540379718254 eval {set sim_annotation {7 received {2:second_message} from 3}}
v 2.0123540379718254 eval {set sim_annotation {7 sending message 2}}
r 2.012643597 _3_ MAC  --- 0 ACK 38 [0 3 0 0] 
s 2.012913597 _3_ MAC  --- 0 RTS 44 [13ee 8 3 0] 
r 2.013266104 _8_ MAC  --- 0 RTS 44 [13ee 8 3 0] 
s 2.013276104 _8_ MAC  --- 0 CTS 38 [12b4 3 0 0] 
r 2.013580611 _3_ MAC  --- 0 CTS 38 [12b4 3 0 0] 
s 2.013590611 _3_ MAC  --- 19 message 558 [13a 8 3 800] ------- [3:8 8:8 32 0] 
r 2.018055118 _8_ MAC  --- 19 message 500 [13a 8 3 800] ------- [3:8 8:8 32 0] 
s 2.018065118 _8_ MAC  --- 0 ACK 38 [0 3 0 0] 
r 2.018080118 _8_ AGT  --- 19 message 500 [13a 8 3 800] ------- [3:8 8:8 32 0] 
r 2.018369625 _3_ MAC  --- 0 ACK 38 [0 3 0 0] 
s 2.018719677 _0_ MAC  --- 0 RTS 44 [13ee 8 0 0] 
r 2.019072236 _8_ MAC  --- 0 RTS 44 [13ee 8 0 0] 
s 2.019082236 _8_ MAC  --- 0 CTS 38 [12b4 0 0 0] 
r 2.019386795 _0_ MAC  --- 0 CTS 38 [12b4 0 0 0] 
s 2.019396795 _0_ MAC  --- 17 message 558 [13a 8 0 800] ------- [0:8 8:7 32 0] 
r 2.023861354 _8_ MAC  --- 17 message 500 [13a 8 0 800] ------- [0:8 8:7 32 0] 
s 2.023871354 _8_ MAC  --- 0 ACK 38 [0 0 0 0] 
r 2.023886354 _8_ AGT  --- 17 message 500 [13a 8 0 800] ------- [0:8 8:7 32 0] 
v 2.0238863537474296 eval {set sim_annotation {8 received {1:first_message} from 0}}
v 2.0238863537474296 eval {set sim_annotation {8 sending message 1}}
r 2.024175913 _0_ MAC  --- 0 ACK 38 [0 0 0 0] 
v 3 eval {set sim_annotation {0 sending message 1}}
s 3.000000000 _0_ AGT  --- 20 message 500 [0 0 0 0] ------- [0:8 7:7 32 0] 
s 3.000000000 _0_ AGT  --- 21 message 500 [0 0 0 0] ------- [0:8 8:7 32 0] 
v 3 eval {set sim_annotation {3 sending message 2}}
s 3.000000000 _3_ AGT  --- 22 message 500 [0 0 0 0] ------- [3:8 7:8 32 0] 
s 3.000000000 _3_ AGT  --- 23 message 500 [0 0 0 0] ------- [3:8 8:8 32 0] 
s 3.000135000 _0_ MAC  --- 0 RTS 44 [13ee 7 0 0] 
r 3.000487507 _7_ MAC  --- 0 RTS 44 [13ee 7 0 0] 
s 3.000497507 _7_ MAC  --- 0 CTS 38 [12b4 0 0 0] 
r 3.000802014 _0_ MAC  --- 0 CTS 38 [12b4 0 0 0] 
s 3.000812014 _0_ MAC  --- 20 message 558 [13a 7 0 800] ------- [0:8 7:7 32 0] 
r 3.005276521 _7_ MAC  --- 20 message 500 [13a 7 0 800] ------- [0:8 7:7 32 0] 
s 3.005286521 _7_ MAC  --- 0 ACK 38 [0 0 0 0] 
r 3.005301521 _7_ AGT  --- 20 message 500 [13a 7 0 800] ------- [0:8 7:7 32 0] 
r 3.005591028 _0_ MAC  --- 0 ACK 38 [0 0 0 0] 
s 3.005701080 _3_ MAC  --- 0 RTS 44 [13ee 7 3 0] 
r 3.006053639 _7_ MAC  --- 0 RTS 44 [13ee 7 3 0] 
s 3.006063639 _7_ MAC  --- 0 CTS 38 [12b4 3 0 0] 
r 3.006368198 _3_ MAC  --- 0 CTS 38 [12b4 3 0 0] 
s 3.006378198 _3_ MAC  --- 22 message 558 [13a 7 3 800] ------- [3:8 7:8 32 0] 
r 3.010842757 _7_ MAC  --- 22 message 500 [13a 7 3 800] ------- [3:8 7:8 32 0] 
s 3.010852757 _7_ MAC  --- 0 ACK 38 [0 3 0 0] 
r 3.010867757 _7_ AGT  --- 22 message 500 [13a 7 3 800] ------- [3:8 7:8 32 0] 
v 3.0108677567586093 eval {set sim_annotation {7 received {2:second_message} from 3}}
v 3.0108677567586093 eval {set sim_annotation {7 sending message 2}}
r 3.011157316 _3_ MAC  --- 0 ACK 38 [0 3 0 0] 
s 3.011487264 _0_ MAC  --- 0 RTS 44 [13ee 8 0 0] 
r 3.011839823 _8_ MAC  --- 0 RTS 44 [13ee 8 0 0] 
s 3.011849823 _8_ MAC  --- 0 CTS 38 [12b4 0 0 0] 
r 3.012154382 _0_ MAC  --- 0 CTS 38 [12b4 0 0 0] 
s 3.012164382 _0_ MAC  --- 21 message 558 [13a 8 0 800] ------- [0:8 8:7 32 0] 
r 3.016628941 _8_ MAC  --- 21 message 500 [13a 8 0 800] ------- [0:8 8:7 32 0] 
s 3.016638941 _8_ MAC  --- 0 ACK 38 [0 0 0 0] 
r 3.016653941 _8_ AGT  --- 21 message 500 [13a 8 0 800] ------- [0:8 8:7 32 0] 
v 3.0166539407064699 eval {set sim_annotation {8 received {1:first_message} from 0}}
v 3.0166539407064699 eval {set sim_annotation {8 sending message 1}}
r 3.016943500 _0_ MAC  --- 0 ACK 38 [0 0 0 0] 
s 3.017213448 _3_ MAC  --- 0 RTS 44 [13ee 8 3 0] 
r 3.017565955 _8_ MAC  --- 0 RTS 44 [13ee 8 3 0] 
s 3.017575955 _8_ MAC  --- 0 CTS 38 [12b4 3 0 0] 
r 3.017880461 _3_ MAC  --- 0 CTS 38 [12b4 3 0 0] 
s 3.017890461 _3_ MAC  --- 23 message 558 [13a 8 3 800] ------- [3:8 8:8 32 0] 
r 3.022354968 _8_ MAC  --- 23 message 500 [13a 8 3 800] ------- [3:8 8:8 32 0] 
s 3.022364968 _8_ MAC  --- 0 ACK 38 [0 3 0 0] 
r 3.022379968 _8_ AGT  --- 23 message 500 [13a 8 3 800] ------- [3:8 8:8 32 0] 
r 3.022669475 _3_ MAC  --- 0 ACK 38 [0 3 0 0] 
v 4 eval {set sim_annotation {0 sending message 1}}
s 4.000000000 _0_ AGT  --- 24 message 500 [0 0 0 0] ------- [0:8 7:7 32 0] 
s 4.000000000 _0_ AGT  --- 25 message 500 [0 0 0 0] ------- [0:8 8:7 32 0] 
v 4 eval {set sim_annotation {3 sending message 2}}
s 4.000000000 _3_ AGT  --- 26 message 500 [0 0 0 0] ------- [3:8 7:8 32 0] 
s 4.000000000 _3_ AGT  --- 27 message 500 [0 0 0 0] ------- [3:8 8:8 32 0] 
s 4.000355000 _0_ MAC  --- 0 RTS 44 [13ee 7 0 0] 
r 4.000707507 _7_ MAC  --- 0 RTS 44 [13ee 7 0 0] 
s 4.000717507 _7_ MAC  --- 0 CTS 38 [12b4 0 0 0] 
r 4.001022014 _0_ MAC  --- 0 CTS 38 [12b4 0 0 0] 
s 4.001032014 _0_ MAC  --- 24 message 558 [13a 7 0 800] ------- [0:8 7:7 32 0] 
r 4.005496521 _7_ MAC  --- 24 message 500 [13a 7 0 800] ------- [0:8 7:7 32 0] 
s 4.005506521 _7_ MAC  --- 0 ACK 38 [0 0 0 0] 
r 4.005521521 _7_ AGT  --- 24 message 500 [13a 7 0 800] ------- [0:8 7:7 32 0] 
r 4.005811028 _0_ MAC  --- 0 ACK 38 [0 0 0 0] 
s 4.005861028 _0_ MAC  --- 0 RTS 44 [13ee 8 0 0] 
r 4.006213587 _8_ MAC  --- 0 RTS 44 [13ee 8 0 0] 
s 4.006223587 _8_ MAC  --- 0 CTS 38 [12b4 0 0 0] 
r 4.006528146 _0_ MAC  --- 0 CTS 38 [12b4 0 0 0] 
s 4.006538146 _0_ MAC  --- 25 message 558 [13a 8 0 800] ------- [0:8 8:7 32 0] 
r 4.011002705 _8_ MAC  --- 25 message 500 [13a 8 0 800] ------- [0:8 8:7 32 0] 
s 4.011012705 _8_ MAC  --- 0 ACK 38 [0 0 0 0] 
r 4.011027705 _8_ AGT  --- 25 message 500 [13a 8 0 800] ------- [0:8 8:7 32 0] 
v 4.0110277046384901 eval {set sim_annotation {8 received {1:first_message} from 0}}
v 4.0110277046384901 eval {set sim_annotation {8 sending message 1}}
r 4.011317264 _0_ MAC  --- 0 ACK 38 [0 0 0 0] 
s 4.011567212 _3_ MAC  --- 0 RTS 44 [13ee 7 3 0] 
r 4.011919771 _7_ MAC  --- 0 RTS 44 [13ee 7 3 0] 
s 4.011929771 _7_ MAC  --- 0 CTS 38 [12b4 3 0 0] 
r 4.012234330 _3_ MAC  --- 0 CTS 38 [12b4 3 0 0] 
s 4.012244330 _3_ MAC  --- 26 message 558 [13a 7 3 800] ------- [3:8 7:8 32 0] 
r 4.016708889 _7_ MAC  --- 26 message 500 [13a 7 3 800] ------- [3:8 7:8 32 0] 
s 4.016718889 _7_ MAC  --- 0 ACK 38 [0 3 0 0] 
r 4.016733889 _7_ AGT  --- 26 message 500 [13a 7 3 800] ------- [3:8 7:8 32 0] 
v 4.0167338885863497 eval {set sim_annotation {7 received {2:second_message} from 3}}
v 4.0167338885863497 eval {set sim_annotation {7 sending message 2}}
r 4.017023448 _3_ MAC  --- 0 ACK 38 [0 3 0 0] 
s 4.017393448 _3_ MAC  --- 0 RTS 44 [13ee 8 3 0] 
r 4.017745955 _8_ MAC  --- 0 RTS 44 [13ee 8 3 0] 
s 4.017755955 _8_ MAC  --- 0 CTS 38 [12b4 3 0 0] 
r 4.018060461 _3_ MAC  --- 0 CTS 38 [12b4 3 0 0] 
s 4.018070461 _3_ MAC  --- 27 message 558 [13a 8 3 800] ------- [3:8 8:8 32 0] 
r 4.022534968 _8_ MAC  --- 27 message 500 [13a 8 3 800] ------- [3:8 8:8 32 0] 
s 4.022544968 _8_ MAC  --- 0 ACK 38 [0 3 0 0] 
r 4.022559968 _8_ AGT  --- 27 message 500 [13a 8 3 800] ------- [3:8 8:8 32 0] 
r 4.022849475 _3_ MAC  --- 0 ACK 38 [0 3 0 0] 
v 5 eval {set sim_annotation {0 sending message 1}}
s 5.000000000 _0_ AGT  --- 28 message 500 [0 0 0 0] ------- [0:8 7:7 32 0] 
s 5.000000000 _0_ AGT  --- 29 message 500 [0 0 0 0] ------- [0:8 8:7 32 0] 
v 5 eval {set sim_annotation {3 sending message 2}}
s 5.000000000 _3_ AGT  --- 30 message 500 [0 0 0 0] ------- [3:8 7:8 32 0] 
s 5.000000000 _3_ AGT  --- 31 message 500 [0 0 0 0] ------- [3:8 8:8 32 0] 
s 5.000155000 _3_ MAC  --- 0 RTS 44 [13ee 7 3 0] 
r 5.000507559 _7_ MAC  --- 0 RTS 44 [13ee 7 3 0] 
s 5.000517559 _7_ MAC  --- 0 CTS 38 [12b4 3 0 0] 
r 5.000822118 _3_ MAC  --- 0 CTS 38 [12b4 3 0 0] 
s 5.000832118 _3_ MAC  --- 30 message 558 [13a 7 3 800] ------- [3:8 7:8 32 0] 
r 5.005296677 _7_ MAC  --- 30 message 500 [13a 7 3 800] ------- [3:8 7:8 32 0] 
s 5.005306677 _7_ MAC  --- 0 ACK 38 [0 3 0 0] 
r 5.005321677 _7_ AGT  --- 30 message 500 [13a 7 3 800] ------- [3:8 7:8 32 0] 
v 5.0053216770509827 eval {set sim_annotation {7 received {2:second_message} from 3}}
v 5.0053216770509827 eval {set sim_annotation {7 sending message 2}}
r 5.005611236 _3_ MAC  --- 0 ACK 38 [0 3 0 0] 
s 5.005801184 _0_ MAC  --- 0 RTS 44 [13ee 7 0 0] 
r 5.006153691 _7_ MAC  --- 0 RTS 44 [13ee 7 0 0] 
s 5.006163691 _7_ MAC  --- 0 CTS 38 [12b4 0 0 0] 
r 5.006468198 _0_ MAC  --- 0 CTS 38 [12b4 0 0 0] 
s 5.006478198 _0_ MAC  --- 28 message 558 [13a 7 0 800] ------- [0:8 7:7 32 0] 
r 5.010942705 _7_ MAC  --- 28 message 500 [13a 7 0 800] ------- [0:8 7:7 32 0] 
s 5.010952705 _7_ MAC  --- 0 ACK 38 [0 0 0 0] 
r 5.010967705 _7_ AGT  --- 28 message 500 [13a 7 0 800] ------- [0:8 7:7 32 0] 
r 5.011257212 _0_ MAC  --- 0 ACK 38 [0 0 0 0] 
s 5.011307212 _0_ MAC  --- 0 RTS 44 [13ee 8 0 0] 
r 5.011659771 _8_ MAC  --- 0 RTS 44 [13ee 8 0 0] 
s 5.011669771 _8_ MAC  --- 0 CTS 38 [12b4 0 0 0] 
r 5.011974330 _0_ MAC  --- 0 CTS 38 [12b4 0 0 0] 
s 5.011984330 _0_ MAC  --- 29 message 558 [13a 8 0 800] ------- [0:8 8:7 32 0] 
r 5.016448889 _8_ MAC  --- 29 message 500 [13a 8 0 800] ------- [0:8 8:7 32 0] 
s 5.016458889 _8_ MAC  --- 0 ACK 38 [0 0 0 0] 
r 5.016473889 _8_ AGT  --- 29 message 500 [13a 8 0 800] ------- [0:8 8:7 32 0] 
v 5.0164738885863498 eval {set sim_annotation {8 received {1:first_message} from 0}}
v 5.0164738885863498 eval {set sim_annotation {8 sending message 1}}
r 5.016763448 _0_ MAC  --- 0 ACK 38 [0 0 0 0] 
s 5.016973395 _3_ MAC  --- 0 RTS 44 [13ee 8 3 0] 
r 5.017325902 _8_ MAC  --- 0 RTS 44 [13ee 8 3 0] 
s 5.017335902 _8_ MAC  --- 0 CTS 38 [12b4 3 0 0] 
r 5.017640409 _3_ MAC  --- 0 CTS 38 [12b4 3 0 0] 
s 5.017650409 _3_ MAC  --- 31 message 558 [13a 8 3 800] ------- [3:8 8:8 32 0] 
r 5.022114916 _8_ MAC  --- 31 message 500 [13a 8 3 800] ------- [3:8 8:8 32 0] 
s 5.022124916 _8_ MAC  --- 0 ACK 38 [0 3 0 0] 
r 5.022139916 _8_ AGT  --- 31 message 500 [13a 8 3 800] ------- [3:8 8:8 32 0] 
r 5.022429423 _3_ MAC  --- 0 ACK 38 [0 3 0 0] 
v 6 eval {set sim_annotation {0 sending message 1}}
s 6.000000000 _0_ AGT  --- 32 message 500 [0 0 0 0] ------- [0:8 7:7 32 0] 
s 6.000000000 _0_ AGT  --- 33 message 500 [0 0 0 0] ------- [0:8 8:7 32 0] 
v 6 eval {set sim_annotation {3 sending message 2}}
s 6.000000000 _3_ AGT  --- 34 message 500 [0 0 0 0] ------- [3:8 7:8 32 0] 
s 6.000000000 _3_ AGT  --- 35 message 500 [0 0 0 0] ------- [3:8 8:8 32 0] 
s 6.000095000 _3_ MAC  --- 0 RTS 44 [13ee 7 3 0] 
r 6.000447559 _7_ MAC  --- 0 RTS 44 [13ee 7 3 0] 
s 6.000457559 _7_ MAC  --- 0 CTS 38 [12b4 3 0 0] 
r 6.000762118 _3_ MAC  --- 0 CTS 38 [12b4 3 0 0] 
s 6.000772118 _3_ MAC  --- 34 message 558 [13a 7 3 800] ------- [3:8 7:8 32 0] 
r 6.005236677 _7_ MAC  --- 34 message 500 [13a 7 3 800] ------- [3:8 7:8 32 0] 
s 6.005246677 _7_ MAC  --- 0 ACK 38 [0 3 0 0] 
r 6.005261677 _7_ AGT  --- 34 message 500 [13a 7 3 800] ------- [3:8 7:8 32 0] 
v 6.0052616770509823 eval {set sim_annotation {7 received {2:second_message} from 3}}
v 6.0052616770509823 eval {set sim_annotation {7 sending message 2}}
r 6.005551236 _3_ MAC  --- 0 ACK 38 [0 3 0 0] 
s 6.005861184 _0_ MAC  --- 0 RTS 44 [13ee 7 0 0] 
r 6.006213691 _7_ MAC  --- 0 RTS 44 [13ee 7 0 0] 
s 6.006223691 _7_ MAC  --- 0 CTS 38 [12b4 0 0 0] 
r 6.006528198 _0_ MAC  --- 0 CTS 38 [12b4 0 0 0] 
s 6.006538198 _0_ MAC  --- 32 message 558 [13a 7 0 800] ------- [0:8 7:7 32 0] 
r 6.011002705 _7_ MAC  --- 32 message 500 [13a 7 0 800] ------- [0:8 7:7 32 0] 
s 6.011012705 _7_ MAC  --- 0 ACK 38 [0 0 0 0] 
r 6.011027705 _7_ AGT  --- 32 message 500 [13a 7 0 800] ------- [0:8 7:7 32 0] 
r 6.011317212 _0_ MAC  --- 0 ACK 38 [0 0 0 0] 
s 6.011587264 _3_ MAC  --- 0 RTS 44 [13ee 8 3 0] 
r 6.011939771 _8_ MAC  --- 0 RTS 44 [13ee 8 3 0] 
s 6.011949771 _8_ MAC  --- 0 CTS 38 [12b4 3 0 0] 
r 6.012254277 _3_ MAC  --- 0 CTS 38 [12b4 3 0 0] 
s 6.012264277 _3_ MAC  --- 35 message 558 [13a 8 3 800] ------- [3:8 8:8 32 0] 
r 6.016728784 _8_ MAC  --- 35 message 500 [13a 8 3 800] ------- [3:8 8:8 32 0] 
s 6.016738784 _8_ MAC  --- 0 ACK 38 [0 3 0 0] 
r 6.016753784 _8_ AGT  --- 35 message 500 [13a 8 3 800] ------- [3:8 8:8 32 0] 
r 6.017043291 _3_ MAC  --- 0 ACK 38 [0 3 0 0] 
s 6.017113343 _0_ MAC  --- 0 RTS 44 [13ee 8 0 0] 
r 6.017465902 _8_ MAC  --- 0 RTS 44 [13ee 8 0 0] 
s 6.017475902 _8_ MAC  --- 0 CTS 38 [12b4 0 0 0] 
r 6.017780461 _0_ MAC  --- 0 CTS 38 [12b4 0 0 0] 