v 0 eval {set sim_annotation {0 sending message 1}}
s 0.000000000 _0_ AGT  --- 0 message 500 [0 0 0 0] ------- [0:8 7:7 32 0] 
s 0.000000000 _0_ AGT  --- 1 message 500 [0 0 0 0] ------- [0:8 8:7 32 0] 
v 0 eval {set sim_annotation {2 sending message 2}}
s 0.000000000 _2_ AGT  --- 2 message 500 [0 0 0 0] ------- [2:8 7:8 32 0] 
s 0.000000000 _2_ AGT  --- 3 message 500 [0 0 0 0] ------- [2:8 8:8 32 0] 
s 0.000095000 _2_ MAC  --- 0 ARP 86 [0 ffffffff 2 806] ------- [REQUEST 2/2 0/7]
r 0.000783167 _4_ MAC  --- 0 ARP 28 [0 ffffffff 2 806] ------- [REQUEST 2/2 0/7]
r 0.000783167 _5_ MAC  --- 0 ARP 28 [0 ffffffff 2 806] ------- [REQUEST 2/2 0/7]
r 0.000783186 _0_ MAC  --- 0 ARP 28 [0 ffffffff 2 806] ------- [REQUEST 2/2 0/7]
r 0.000783236 _6_ MAC  --- 0 ARP 28 [0 ffffffff 2 806] ------- [REQUEST 2/2 0/7]
r 0.000783300 _3_ MAC  --- 0 ARP 28 [0 ffffffff 2 806] ------- [REQUEST 2/2 0/7]
r 0.000783333 _7_ MAC  --- 0 ARP 28 [0 ffffffff 2 806] ------- [REQUEST 2/2 0/7]
r 0.000783344 _1_ MAC  --- 0 ARP 28 [0 ffffffff 2 806] ------- [REQUEST 2/2 0/7]
r 0.000783373 _8_ MAC  --- 0 ARP 28 [0 ffffffff 2 806] ------- [REQUEST 2/2 0/7]
s 0.001138333 _7_ MAC  --- 0 RTS 44 [52e 2 7 0] 
r 0.001490667 _2_ MAC  --- 0 RTS 44 [52e 2 7 0] 
s 0.001500667 _2_ MAC  --- 0 CTS 38 [3f4 7 0 0] 
r 0.001805000 _7_ MAC  --- 0 CTS 38 [3f4 7 0 0] 
s 0.001815000 _7_ MAC  --- 0 ARP 86 [13a 2 7 806] ------- [REPLY 7/7 2/2]
r 0.002503333 _2_ MAC  --- 0 ARP 28 [13a 2 7 806] ------- [REPLY 7/7 2/2]
s 0.002513333 _2_ MAC  --- 0 ACK 38 [0 7 0 0] 
r 0.002817667 _7_ MAC  --- 0 ACK 38 [0 7 0 0] 
s 0.002987520 _0_ MAC  --- 0 ARP 86 [0 ffffffff 0 806] ------- [REQUEST 0/0 0/7]
r 0.003675706 _2_ MAC  --- 0 ARP 28 [0 ffffffff 0 806] ------- [REQUEST 0/0 0/7]
r 0.003675755 _1_ MAC  --- 0 ARP 28 [0 ffffffff 0 806] ------- [REQUEST 0/0 0/7]
r 0.003675820 _4_ MAC  --- 0 ARP 28 [0 ffffffff 0 806] ------- [REQUEST 0/0 0/7]
r 0.003675853 _3_ MAC  --- 0 ARP 28 [0 ffffffff 0 806] ------- [REQUEST 0/0 0/7]
r 0.003675863 _5_ MAC  --- 0 ARP 28 [0 ffffffff 0 806] ------- [REQUEST 0/0 0/7]
r 0.003675936 _6_ MAC  --- 0 ARP 28 [0 ffffffff 0 806] ------- [REQUEST 0/0 0/7]
r 0.003676027 _7_ MAC  --- 0 ARP 28 [0 ffffffff 0 806] ------- [REQUEST 0/0 0/7]
r 0.003676079 _8_ MAC  --- 0 ARP 28 [0 ffffffff 0 806] ------- [REQUEST 0/0 0/7]
s 0.003725520 _0_ MAC  --- 0 ARP 86 [0 ffffffff 0 806] ------- [REQUEST 0/0 0/8]
r 0.004413706 _2_ MAC  --- 0 ARP 28 [0 ffffffff 0 806] ------- [REQUEST 0/0 0/8]
r 0.004413755 _1_ MAC  --- 0 ARP 28 [0 ffffffff 0 806] ------- [REQUEST 0/0 0/8]
r 0.004413820 _4_ MAC  --- 0 ARP 28 [0 ffffffff 0 806] ------- [REQUEST 0/0 0/8]
r 0.004413853 _3_ MAC  --- 0 ARP 28 [0 ffffffff 0 806] ------- [REQUEST 0/0 0/8]
r 0.004413863 _5_ MAC  --- 0 ARP 28 [0 ffffffff 0 806] ------- [REQUEST 0/0 0/8]
r 0.004413936 _6_ MAC  --- 0 ARP 28 [0 ffffffff 0 806] ------- [REQUEST 0/0 0/8]
r 0.004414027 _7_ MAC  --- 0 ARP 28 [0 ffffffff 0 806] ------- [REQUEST 0/0 0/8]
r 0.004414079 _8_ MAC  --- 0 ARP 28 [0 ffffffff 0 806] ------- [REQUEST 0/0 0/8]
s 0.004603706 _2_ MAC  --- 0 ARP 86 [0 ffffffff 2 806] ------- [REQUEST 2/2 0/8]
r 0.005291873 _4_ MAC  --- 0 ARP 28 [0 ffffffff 2 806] ------- [REQUEST 2/2 0/8]
r 0.005291873 _5_ MAC  --- 0 ARP 28 [0 ffffffff 2 806] ------- [REQUEST 2/2 0/8]
r 0.005291892 _0_ MAC  --- 0 ARP 28 [0 ffffffff 2 806] ------- [REQUEST 2/2 0/8]
r 0.005291942 _6_ MAC  --- 0 ARP 28 [0 ffffffff 2 806] ------- [REQUEST 2/2 0/8]
r 0.005292006 _3_ MAC  --- 0 ARP 28 [0 ffffffff 2 806] ------- [REQUEST 2/2 0/8]
r 0.005292039 _7_ MAC  --- 0 ARP 28 [0 ffffffff 2 806] ------- [REQUEST 2/2 0/8]
r 0.005292050 _1_ MAC  --- 0 ARP 28 [0 ffffffff 2 806] ------- [REQUEST 2/2 0/8]
r 0.005292079 _8_ MAC  --- 0 ARP 28 [0 ffffffff 2 806] ------- [REQUEST 2/2 0/8]
s 0.005402039 _7_ MAC  --- 0 RTS 44 [52e 0 7 0] 
r 0.005754546 _0_ MAC  --- 0 RTS 44 [52e 0 7 0] 
s 0.005764546 _0_ MAC  --- 0 CTS 38 [3f4 7 0 0] 
r 0.006069053 _7_ MAC  --- 0 CTS 38 [3f4 7 0 0] 
s 0.006079053 _7_ MAC  --- 0 ARP 86 [13a 0 7 806] ------- [REPLY 7/7 0/0]
r 0.006767560 _0_ MAC  --- 0 ARP 28 [13a 0 7 806] ------- [REPLY 7/7 0/0]
s 0.006777560 _0_ MAC  --- 0 ACK 38 [0 7 0 0] 
r 0.007082067 _7_ MAC  --- 0 ACK 38 [0 7 0 0] 
s 0.007152119 _8_ MAC  --- 0 RTS 44 [52e 0 8 0] 
r 0.007504678 _0_ MAC  --- 0 RTS 44 [52e 0 8 0] 
s 0.007514678 _0_ MAC  --- 0 CTS 38 [3f4 8 0 0] 
r 0.007819237 _8_ MAC  --- 0 CTS 38 [3f4 8 0 0] 
s 0.007829237 _8_ MAC  --- 0 ARP 86 [13a 0 8 806] ------- [REPLY 8/8 0/0]
r 0.008517796 _0_ MAC  --- 0 ARP 28 [13a 0 8 806] ------- [REPLY 8/8 0/0]
s 0.008527796 _0_ MAC  --- 0 ACK 38 [0 8 0 0] 
r 0.008832355 _8_ MAC  --- 0 ACK 38 [0 8 0 0] 
s 0.009041982 _2_ MAC  --- 0 RTS 44 [13ee 7 2 0] 
r 0.009394316 _7_ MAC  --- 0 RTS 44 [13ee 7 2 0] 
s 0.009404316 _7_ MAC  --- 0 CTS 38 [12b4 2 0 0] 
r 0.009708649 _2_ MAC  --- 0 CTS 38 [12b4 2 0 0] 
s 0.009718649 _2_ MAC  --- 2 message 558 [13a 7 2 800] ------- [2:8 7:8 32 0] 
r 0.014182982 _7_ MAC  --- 2 message 500 [13a 7 2 800] ------- [2:8 7:8 32 0] 
s 0.014192982 _7_ MAC  --- 0 ACK 38 [0 2 0 0] 
r 0.014207982 _7_ AGT  --- 2 message 500 [13a 7 2 800] ------- [2:8 7:8 32 0] 
s 0.014207982 _7_ AGT  --- 4 message 500 [0 0 0 0] ------- [7:8 7:8 32 0] 
r 0.014207982 _7_ AGT  --- 4 message 500 [0 0 0 0] ------- [7:8 7:8 32 0] 
s 0.014207982 _7_ AGT  --- 5 message 500 [0 0 0 0] ------- [7:8 8:8 32 0] 
r 0.014497316 _2_ MAC  --- 0 ACK 38 [0 2 0 0] 
s 0.014626982 _7_ MAC  --- 0 ARP 86 [0 ffffffff 7 806] ------- [REQUEST 7/7 0/8]
s 0.014627149 _8_ MAC  --- 0 RTS 44 [52e 2 8 0] 
D 0.014627522 _2_ MAC  COL 0 RTS 44 [52e 2 8 0] 
D 0.015315149 _5_ MAC  COL 0 ARP 86 [0 ffffffff 7 806] ------- [REQUEST 7/7 0/8]
D 0.015315218 _6_ MAC  COL 0 ARP 86 [0 ffffffff 7 806] ------- [REQUEST 7/7 0/8]
D 0.015315316 _2_ MAC  COL 0 ARP 86 [0 ffffffff 7 806] ------- [REQUEST 7/7 0/8]
D 0.015315355 _4_ MAC  COL 0 ARP 86 [0 ffffffff 7 806] ------- [REQUEST 7/7 0/8]
D 0.015315489 _0_ MAC  COL 0 ARP 86 [0 ffffffff 7 806] ------- [REQUEST 7/7 0/8]
D 0.015315541 _3_ MAC  COL 0 ARP 86 [0 ffffffff 7 806] ------- [REQUEST 7/7 0/8]
D 0.015315654 _1_ MAC  COL 0 ARP 86 [0 ffffffff 7 806] ------- [REQUEST 7/7 0/8]
s 0.015829489 _0_ MAC  --- 0 RTS 44 [13ee 7 0 0] 
r 0.016181996 _7_ MAC  --- 0 RTS 44 [13ee 7 0 0] 
s 0.016191996 _7_ MAC  --- 0 CTS 38 [12b4 0 0 0] 
r 0.016496503 _0_ MAC  --- 0 CTS 38 [12b4 0 0 0] 
s 0.016506503 _0_ MAC  --- 0 message 558 [13a 7 0 800] ------- [0:8 7:7 32 0] 
r 0.020971010 _7_ MAC  --- 0 message 500 [13a 7 0 800] ------- [0:8 7:7 32 0] 
s 0.020981010 _7_ MAC  --- 0 ACK 38 [0 0 0 0] 
r 0.020996010 _7_ AGT  --- 0 message 500 [13a 7 0 800] ------- [0:8 7:7 32 0] 
s 0.020996010 _7_ AGT  --- 6 message 500 [0 0 0 0] ------- [7:8 7:8 32 0] 
r 0.020996010 _7_ AGT  --- 6 message 500 [0 0 0 0] ------- [7:8 7:8 32 0] 
s 0.020996010 _7_ AGT  --- 7 message 500 [0 0 0 0] ------- [7:8 8:8 32 0] 
D 0.020996010 _7_ IFQ  ARP 5 message 500 [0 0 7 800] ------- [7:8 8:8 32 0] 
r 0.021285517 _0_ MAC  --- 0 ACK 38 [0 0 0 0] 
s 0.021575517 _0_ MAC  --- 0 RTS 44 [13ee 8 0 0] 
r 0.021928076 _8_ MAC  --- 0 RTS 44 [13ee 8 0 0] 
s 0.021938076 _8_ MAC  --- 0 CTS 38 [12b4 0 0 0] 
r 0.022242635 _0_ MAC  --- 0 CTS 38 [12b4 0 0 0] 
s 0.022252635 _0_ MAC  --- 1 message 558 [13a 8 0 800] ------- [0:8 8:7 32 0] 
r 0.026717194 _8_ MAC  --- 1 message 500 [13a 8 0 800] ------- [0:8 8:7 32 0] 
s 0.026727194 _8_ MAC  --- 0 ACK 38 [0 0 0 0] 
r 0.026742194 _8_ AGT  --- 1 message 500 [13a 8 0 800] ------- [0:8 8:7 32 0] 
v 0.026742193977641857 eval {set sim_annotation {8 received {1:first_message} from 0}}
v 0.026742193977641857 eval {set sim_annotation {8 sending message 1}}
s 0.026742194 _8_ AGT  --- 8 message 500 [0 0 0 0] ------- [8:8 7:8 32 0] 
s 0.026742194 _8_ AGT  --- 9 message 500 [0 0 0 0] ------- [8:8 8:8 32 0] 
r 0.026742194 _8_ AGT  --- 9 message 500 [0 0 0 0] ------- [8:8 8:8 32 0] 
r 0.027031753 _0_ MAC  --- 0 ACK 38 [0 0 0 0] 
s 0.027201361 _7_ MAC  --- 0 ARP 86 [0 ffffffff 7 806] ------- [REQUEST 7/7 0/8]
r 0.027889527 _5_ MAC  --- 0 ARP 28 [0 ffffffff 7 806] ------- [REQUEST 7/7 0/8]
r 0.027889527 _8_ MAC  --- 0 ARP 28 [0 ffffffff 7 806] ------- [REQUEST 7/7 0/8]
r 0.027889596 _6_ MAC  --- 0 ARP 28 [0 ffffffff 7 806] ------- [REQUEST 7/7 0/8]
r 0.027889694 _2_ MAC  --- 0 ARP 28 [0 ffffffff 7 806] ------- [REQUEST 7/7 0/8]
r 0.027889733 _4_ MAC  --- 0 ARP 28 [0 ffffffff 7 806] ------- [REQUEST 7/7 0/8]
r 0.027889868 _0_ MAC  --- 0 ARP 28 [0 ffffffff 7 806] ------- [REQUEST 7/7 0/8]
r 0.027889920 _3_ MAC  --- 0 ARP 28 [0 ffffffff 7 806] ------- [REQUEST 7/7 0/8]
r 0.027890032 _1_ MAC  --- 0 ARP 28 [0 ffffffff 7 806] ------- [REQUEST 7/7 0/8]
s 0.028579527 _8_ MAC  --- 0 RTS 44 [52e 2 8 0] 
r 0.028931900 _2_ MAC  --- 0 RTS 44 [52e 2 8 0] 
s 0.028941900 _2_ MAC  --- 0 CTS 38 [3f4 8 0 0] 
r 0.029246273 _8_ MAC  --- 0 CTS 38 [3f4 8 0 0] 
s 0.029256273 _8_ MAC  --- 0 ARP 86 [13a 2 8 806] ------- [REPLY 8/8 2/2]
r 0.029944645 _2_ MAC  --- 0 ARP 28 [13a 2 8 806] ------- [REPLY 8/8 2/2]
s 0.029954645 _2_ MAC  --- 0 ACK 38 [0 8 0 0] 
r 0.030259018 _8_ MAC  --- 0 ACK 38 [0 8 0 0] 
s 0.030629018 _8_ MAC  --- 0 RTS 44 [13ee 7 8 0] 
r 0.030981185 _7_ MAC  --- 0 RTS 44 [13ee 7 8 0] 
s 0.030991185 _7_ MAC  --- 0 CTS 38 [12b4 8 0 0] 
r 0.031295351 _8_ MAC  --- 0 CTS 38 [12b4 8 0 0] 
s 0.031305351 _8_ MAC  --- 8 message 558 [13a 7 8 800] ------- [8:8 7:8 32 0] 
r 0.035769518 _7_ MAC  --- 8 message 500 [13a 7 8 800] ------- [8:8 7:8 32 0] 
s 0.035779518 _7_ MAC  --- 0 ACK 38 [0 8 0 0] 
r 0.035794518 _7_ AGT  --- 8 message 500 [13a 7 8 800] ------- [8:8 7:8 32 0] 
r 0.036083685 _8_ MAC  --- 0 ACK 38 [0 8 0 0] 
s 0.036153851 _2_ MAC  --- 0 RTS 44 [13ee 8 2 0] 
r 0.036506224 _8_ MAC  --- 0 RTS 44 [13ee 8 2 0] 
s 0.036516224 _8_ MAC  --- 0 CTS 38 [12b4 2 0 0] 
r 0.036820597 _2_ MAC  --- 0 CTS 38 [12b4 2 0 0] 
s 0.036830597 _2_ MAC  --- 3 message 558 [13a 8 2 800] ------- [2:8 8:8 32 0] 
r 0.041294969 _8_ MAC  --- 3 message 500 [13a 8 2 800] ------- [2:8 8:8 32 0] 
s 0.041304969 _8_ MAC  --- 0 ACK 38 [0 2 0 0] 
r 0.041319969 _8_ AGT  --- 3 message 500 [13a 8 2 800] ------- [2:8 8:8 32 0] 
s 0.041319969 _8_ AGT  --- 10 message 500 [0 0 0 0] ------- [8:8 7:8 32 0] 
s 0.041319969 _8_ AGT  --- 11 message 500 [0 0 0 0] ------- [8:8 8:8 32 0] 
r 0.041319969 _8_ AGT  --- 11 message 500 [0 0 0 0] ------- [8:8 8:8 32 0] 
r 0.041609342 _2_ MAC  --- 0 ACK 38 [0 2 0 0] 
s 0.041838969 _8_ MAC  --- 0 ARP 86 [0 ffffffff 8 806] ------- [REQUEST 8/8 0/7]
r 0.042527136 _7_ MAC  --- 0 ARP 28 [0 ffffffff 8 806] ------- [REQUEST 8/8 0/7]
r 0.042527136 _6_ MAC  --- 0 ARP 28 [0 ffffffff 8 806] ------- [REQUEST 8/8 0/7]
r 0.042527205 _5_ MAC  --- 0 ARP 28 [0 ffffffff 8 806] ------- [REQUEST 8/8 0/7]
r 0.042527303 _4_ MAC  --- 0 ARP 28 [0 ffffffff 8 806] ------- [REQUEST 8/8 0/7]
r 0.042527342 _2_ MAC  --- 0 ARP 28 [0 ffffffff 8 806] ------- [REQUEST 8/8 0/7]
r 0.042527476 _3_ MAC  --- 0 ARP 28 [0 ffffffff 8 806] ------- [REQUEST 8/8 0/7]
r 0.042527528 _0_ MAC  --- 0 ARP 28 [0 ffffffff 8 806] ------- [REQUEST 8/8 0/7]
r 0.042527641 _1_ MAC  --- 0 ARP 28 [0 ffffffff 8 806] ------- [REQUEST 8/8 0/7]
s 0.042596969 _8_ MAC  --- 0 RTS 44 [13ee 7 8 0] 
r 0.042949136 _7_ MAC  --- 0 RTS 44 [13ee 7 8 0] 
s 0.042959136 _7_ MAC  --- 0 CTS 38 [12b4 8 0 0] 
r 0.043263303 _8_ MAC  --- 0 CTS 38 [12b4 8 0 0] 
s 0.043273303 _8_ MAC  --- 10 message 558 [13a 7 8 800] ------- [8:8 7:8 32 0] 
r 0.047737469 _7_ MAC  --- 10 message 500 [13a 7 8 800] ------- [8:8 7:8 32 0] 
s 0.047747469 _7_ MAC  --- 0 ACK 38 [0 8 0 0] 
r 0.047762469 _7_ AGT  --- 10 message 500 [13a 7 8 800] ------- [8:8 7:8 32 0] 
r 0.048051636 _8_ MAC  --- 0 ACK 38 [0 8 0 0] 
s 0.048341469 _7_ MAC  --- 0 RTS 44 [13ee 8 7 0] 
r 0.048693636 _8_ MAC  --- 0 RTS 44 [13ee 8 7 0] 
s 0.048703636 _8_ MAC  --- 0 CTS 38 [12b4 7 0 0] 
r 0.049007803 _7_ MAC  --- 0 CTS 38 [12b4 7 0 0] 
s 0.049017803 _7_ MAC  --- 7 message 558 [13a 8 7 800] ------- [7:8 8:8 32 0] 
r 0.053481969 _8_ MAC  --- 7 message 500 [13a 8 7 800] ------- [7:8 8:8 32 0] 
s 0.053491969 _8_ MAC  --- 0 ACK 38 [0 7 0 0] 
r 0.053506969 _8_ AGT  --- 7 message 500 [13a 8 7 800] ------- [7:8 8:8 32 0] 
r 0.053796136 _7_ MAC  --- 0 ACK 38 [0 7 0 0] 
s 0.054026136 _7_ MAC  --- 0 RTS 44 [52e 8 7 0] 
r 0.054378303 _8_ MAC  --- 0 RTS 44 [52e 8 7 0] 
s 0.054388303 _8_ MAC  --- 0 CTS 38 [3f4 7 0 0] 
r 0.054692469 _7_ MAC  --- 0 CTS 38 [3f4 7 0 0] 
s 0.054702469 _7_ MAC  --- 0 ARP 86 [13a 8 7 806] ------- [REPLY 7/7 8/8]
r 0.055390636 _8_ MAC  --- 0 ARP 28 [13a 8 7 806] ------- [REPLY 7/7 8/8]
s 0.055400636 _8_ MAC  --- 0 ACK 38 [0 7 0 0] 
r 0.055704803 _7_ MAC  --- 0 ACK 38 [0 7 0 0] 
s 0.055794636 _8_ MAC  --- 0 RTS 44 [52e 7 8 0] 
r 0.056146803 _7_ MAC  --- 0 RTS 44 [52e 7 8 0] 
s 0.056156803 _7_ MAC  --- 0 CTS 38 [3f4 8 0 0] 
r 0.056460969 _8_ MAC  --- 0 CTS 38 [3f4 8 0 0] 
s 0.056470969 _8_ MAC  --- 0 ARP 86 [13a 7 8 806] ------- [REPLY 8/8 7/7]
r 0.057159136 _7_ MAC  --- 0 ARP 28 [13a 7 8 806] ------- [REPLY 8/8 7/7]
s 0.057169136 _7_ MAC  --- 0 ACK 38 [0 8 0 0] 
r 0.057473303 _8_ MAC  --- 0 ACK 38 [0 8 0 0] 
v 1 eval {set sim_annotation {0 sending message 1}}
s 1.000000000 _0_ AGT  --- 12 message 500 [0 0 0 0] ------- [0:8 7:7 32 0] 
s 1.000000000 _0_ AGT  --- 13 message 500 [0 0 0 0] ------- [0:8 8:7 32 0] 
v 1 eval {set sim_annotation {2 sending message 2}}
s 1.000000000 _2_ AGT  --- 14 message 500 [0 0 0 0] ------- [2:8 7:8 32 0] 
s 1.000000000 _2_ AGT  --- 15 message 500 [0 0 0 0] ------- [2:8 8:8 32 0] 
s 1.000435000 _2_ MAC  --- 0 RTS 44 [13ee 7 2 0] 
r 1.000787333 _7_ MAC  --- 0 RTS 44 [13ee 7 2 0] 
s 1.000797333 _7_ MAC  --- 0 CTS 38 [12b4 2 0 0] 
r 1.001101667 _2_ MAC  --- 0 CTS 38 [12b4 2 0 0] 
s 1.001111667 _2_ MAC  --- 14 message 558 [13a 7 2 800] ------- [2:8 7:8 32 0] 
r 1.005576000 _7_ MAC  --- 14 message 500 [13a 7 2 800] ------- [2:8 7:8 32 0] 
s 1.005586000 _7_ MAC  --- 0 ACK 38 [0 2 0 0] 
r 1.005601000 _7_ AGT  --- 14 message 500 [13a 7 2 800] ------- [2:8 7:8 32 0] 
r 1.005890333 _2_ MAC  --- 0 ACK 38 [0 2 0 0] 
s 1.005980333 _2_ MAC  --- 0 RTS 44 [13ee 8 2 0] 
r 1.006332706 _8_ MAC  --- 0 RTS 44 [13ee 8 2 0] 
s 1.006342706 _8_ MAC  --- 0 CTS 38 [12b4 2 0 0] 
r 1.006647079 _2_ MAC  --- 0 CTS 38 [12b4 2 0 0] 
s 1.006657079 _2_ MAC  --- 15 message 558 [13a 8 2 800] ------- [2:8 8:8 32 0] 
r 1.011121451 _8_ MAC  --- 15 message 500 [13a 8 2 800] ------- [2:8 8:8 32 0] 
s 1.011131451 _8_ MAC  --- 0 ACK 38 [0 2 0 0] 
r 1.011146451 _8_ AGT  --- 15 message 500 [13a 8 2 800] ------- [2:8 8:8 32 0] 
r 1.011435824 _2_ MAC  --- 0 ACK 38 [0 2 0 0] 
s 1.011626010 _0_ MAC  --- 0 RTS 44 [13ee 7 0 0] 
r 1.011978517 _7_ MAC  --- 0 RTS 44 [13ee 7 0 0] 
s 1.011988517 _7_ MAC  --- 0 CTS 38 [12b4 0 0 0] 
r 1.012293024 _0_ MAC  --- 0 CTS 38 [12b4 0 0 0] 
s 1.012303024 _0_ MAC  --- 12 message 558 [13a 7 0 800] ------- [0:8 7:7 32 0] 
r 1.016767531 _7_ MAC  --- 12 message 500 [13a 7 0 800] ------- [0:8 7:7 32 0] 
s 1.016777531 _7_ MAC  --- 0 ACK 38 [0 0 0 0] 
r 1.016792531 _7_ AGT  --- 12 message 500 [13a 7 0 800] ------- [0:8 7:7 32 0] 
r 1.017082038 _0_ MAC  --- 0 ACK 38 [0 0 0 0] 
s 1.017492038 _0_ MAC  --- 0 RTS 44 [13ee 8 0 0] 
r 1.017844597 _8_ MAC  --- 0 RTS 44 [13ee 8 0 0] 
s 1.017854597 _8_ MAC  --- 0 CTS 38 [12b4 0 0 0] 
r 1.018159156 _0_ MAC  --- 0 CTS 38 [12b4 0 0 0] 
s 1.018169156 _0_ MAC  --- 13 message 558 [13a 8 0 800] ------- [0:8 8:7 32 0] 
r 1.022633715 _8_ MAC  --- 13 message 500 [13a 8 0 800] ------- [0:8 8:7 32 0] 
s 1.022643715 _8_ MAC  --- 0 ACK 38 [0 0 0 0] 
r 1.022658715 _8_ AGT  --- 13 message 500 [13a 8 0 800] ------- [0:8 8:7 32 0] 
v 1.0226587150228112 eval {set sim_annotation {8 received redundant message 1 from 0}}
r 1.022948274 _0_ MAC  --- 0 ACK 38 [0 0 0 0] 
v 2 eval {set sim_annotation {0 sending message 1}}
s 2.000000000 _0_ AGT  --- 16 message 500 [0 0 0 0] ------- [0:8 7:7 32 0] 
s 2.000000000 _0_ AGT  --- 17 message 500 [0 0 0 0] ------- [0:8 8:7 32 0] 
v 2 eval {set sim_annotation {2 sending message 2}}
s 2.000000000 _2_ AGT  --- 18 message 500 [0 0 0 0] ------- [2:8 7:8 32 0] 
s 2.000000000 _2_ AGT  --- 19 message 500 [0 0 0 0] ------- [2:8 8:8 32 0] 
s 2.000155000 _0_ MAC  --- 0 RTS 44 [13ee 7 0 0] 
r 2.000507507 _7_ MAC  --- 0 RTS 44 [13ee 7 0 0] 
s 2.000517507 _7_ MAC  --- 0 CTS 38 [12b4 0 0 0] 
r 2.000822014 _0_ MAC  --- 0 CTS 38 [12b4 0 0 0] 
s 2.000832014 _0_ MAC  --- 16 message 558 [13a 7 0 800] ------- [0:8 7:7 32 0] 
r 2.005296521 _7_ MAC  --- 16 message 500 [13a 7 0 800] ------- [0:8 7:7 32 0] 
s 2.005306521 _7_ MAC  --- 0 ACK 38 [0 0 0 0] 
r 2.005321521 _7_ AGT  --- 16 message 500 [13a 7 0 800] ------- [0:8 7:7 32 0] 
r 2.005611028 _0_ MAC  --- 0 ACK 38 [0 0 0 0] 
s 2.005860854 _2_ MAC  --- 0 RTS 44 [13ee 7 2 0] 
s 2.005861028 _0_ MAC  --- 0 RTS 44 [13ee 8 0 0] 
D 2.005861534 _7_ MAC  COL 0 RTS 44 [13ee 7 2 0] 
D 2.006213587 _8_ MAC  COL 0 RTS 44 [13ee 8 0 0] 
s 2.007187040 _0_ MAC  --- 0 RTS 44 [13ee 8 0 0] 
r 2.007539599 _8_ MAC  --- 0 RTS 44 [13ee 8 0 0] 
s 2.007549599 _8_ MAC  --- 0 CTS 38 [12b4 0 0 0] 
r 2.007854158 _0_ MAC  --- 0 CTS 38 [12b4 0 0 0] 
s 2.007864158 _0_ MAC  --- 17 message 558 [13a 8 0 800] ------- [0:8 8:7 32 0] 
r 2.012328717 _8_ MAC  --- 17 message 500 [13a 8 0 800] ------- [0:8 8:7 32 0] 
s 2.012338717 _8_ MAC  --- 0 ACK 38 [0 0 0 0] 
r 2.012353717 _8_ AGT  --- 17 message 500 [13a 8 0 800] ------- [0:8 8:7 32 0] 
v 2.0123537174139461 eval {set sim_annotation {8 received redundant message 1 from 0}}
r 2.012643276 _0_ MAC  --- 0 ACK 38 [0 0 0 0] 
s 2.013213090 _2_ MAC  --- 0 RTS 44 [13ee 7 2 0] 
r 2.013565423 _7_ MAC  --- 0 RTS 44 [13ee 7 2 0] 
s 2.013575423 _7_ MAC  --- 0 CTS 38 [12b4 2 0 0] 
r 2.013879757 _2_ MAC  --- 0 CTS 38 [12b4 2 0 0] 
s 2.013889757 _2_ MAC  --- 18 message 558 [13a 7 2 800] ------- [2:8 7:8 32 0] 
r 2.018354090 _7_ MAC  --- 18 message 500 [13a 7 2 800] ------- [2:8 7:8 32 0] 
s 2.018364090 _7_ MAC  --- 0 ACK 38 [0 2 0 0] 
r 2.018379090 _7_ AGT  --- 18 message 500 [13a 7 2 800] ------- [2:8 7:8 32 0] 
r 2.018668423 _2_ MAC  --- 0 ACK 38 [0 2 0 0] 
s 2.018918423 _2_ MAC  --- 0 RTS 44 [13ee 8 2 0] 
r 2.019270796 _8_ MAC  --- 0 RTS 44 [13ee 8 2 0] 
s 2.019280796 _8_ MAC  --- 0 CTS 38 [12b4 2 0 0] 
r 2.019585169 _2_ MAC  --- 0 CTS 38 [12b4 2 0 0] 
s 2.019595169 _2_ MAC  --- 19 message 558 [13a 8 2 800] ------- [2:8 8:8 32 0] 
r 2.024059541 _8_ MAC  --- 19 message 500 [13a 8 2 800] ------- [2:8 8:8 32 0] 
s 2.024069541 _8_ MAC  --- 0 ACK 38 [0 2 0 0] 
r 2.024084541 _8_ AGT  --- 19 message 500 [13a 8 2 800] ------- [2:8 8:8 32 0] 
r 2.024373914 _2_ MAC  --- 0 ACK 38 [0 2 0 0] 
v 3 eval {set sim_annotation {0 sending message 1}}
s 3.000000000 _0_ AGT  --- 20 message 500 [0 0 0 0] ------- [0:8 7:7 32 0] 
s 3.000000000 _0_ AGT  --- 21 message 500 [0 0 0 0] ------- [0:8 8:7 32 0] 
v 3 eval {set sim_annotation {2 sending message 2}}
s 3.000000000 _2_ AGT  --- 22 message 500 [0 0 0 0] ------- [2:8 7:8 32 0] 
s 3.000000000 _2_ AGT  --- 23 message 500 [0 0 0 0] ------- [2:8 8:8 32 0] 
s 3.000135000 _0_ MAC  --- 0 RTS 44 [13ee 7 0 0] 
r 3.000487507 _7_ MAC  --- 0 RTS 44 [13ee 7 0 0] 
s 3.000497507 _7_ MAC  --- 0 CTS 38 [12b4 0 0 0] 
r 3.000802014 _0_ MAC  --- 0 CTS 38 [12b4 0 0 0] 
s 3.000812014 _0_ MAC  --- 20 message 558 [13a 7 0 800] ------- [0:8 7:7 32 0] 
r 3.005276521 _7_ MAC  --- 20 message 500 [13a 7 0 800] ------- [0:8 7:7 32 0] 
s 3.005286521 _7_ MAC  --- 0 ACK 38 [0 0 0 0] 
r 3.005301521 _7_ AGT  --- 20 message 500 [13a 7 0 800] ------- [0:8 7:7 32 0] 
r 3.005591028 _0_ MAC  --- 0 ACK 38 [0 0 0 0] 
s 3.005700854 _2_ MAC  --- 0 RTS 44 [13ee 7 2 0] 
r 3.006053187 _7_ MAC  --- 0 RTS 44 [13ee 7 2 0] 
s 3.006063187 _7_ MAC  --- 0 CTS 38 [12b4 2 0 0] 
r 3.006367521 _2_ MAC  --- 0 CTS 38 [12b4 2 0 0] 
s 3.006377521 _2_ MAC  --- 22 message 558 [13a 7 2 800] ------- [2:8 7:8 32 0] 
r 3.010841854 _7_ MAC  --- 22 message 500 [13a 7 2 800] ------- [2:8 7:8 32 0] 
s 3.010851854 _7_ MAC  --- 0 ACK 38 [0 2 0 0] 
r 3.010866854 _7_ AGT  --- 22 message 500 [13a 7 2 800] ------- [2:8 7:8 32 0] 
r 3.011156187 _2_ MAC  --- 0 ACK 38 [0 2 0 0] 
s 3.011486361 _0_ MAC  --- 0 RTS 44 [13ee 8 0 0] 
r 3.011838920 _8_ MAC  --- 0 RTS 44 [13ee 8 0 0] 
s 3.011848920 _8_ MAC  --- 0 CTS 38 [12b4 0 0 0] 
r 3.012153479 _0_ MAC  --- 0 CTS 38 [12b4 0 0 0] 
s 3.012163479 _0_ MAC  --- 21 message 558 [13a 8 0 800] ------- [0:8 8:7 32 0] 
r 3.016628038 _8_ MAC  --- 21 message 500 [13a 8 0 800] ------- [0:8 8:7 32 0] 
s 3.016638038 _8_ MAC  --- 0 ACK 38 [0 0 0 0] 
r 3.016653038 _8_ AGT  --- 21 message 500 [13a 8 0 800] ------- [0:8 8:7 32 0] 
v 3.0166530379718255 eval {set sim_annotation {8 received redundant message 1 from 0}}
r 3.016942597 _0_ MAC  --- 0 ACK 38 [0 0 0 0] 
s 3.017212411 _2_ MAC  --- 0 RTS 44 [13ee 8 2 0] 
r 3.017564783 _8_ MAC  --- 0 RTS 44 [13ee 8 2 0] 
s 3.017574783 _8_ MAC  --- 0 CTS 38 [12b4 2 0 0] 
r 3.017879156 _2_ MAC  --- 0 CTS 38 [12b4 2 0 0] 
s 3.017889156 _2_ MAC  --- 23 message 558 [13a 8 2 800] ------- [2:8 8:8 32 0] 
r 3.022353529 _8_ MAC  --- 23 message 500 [13a 8 2 800] ------- [2:8 8:8 32 0] 
s 3.022363529 _8_ MAC  --- 0 ACK 38 [0 2 0 0] 
r 3.022378529 _8_ AGT  --- 23 message 500 [13a 8 2 800] ------- [2:8 8:8 32 0] 
r 3.022667901 _2_ MAC  --- 0 ACK 38 [0 2 0 0] 
v 4 eval {set sim_annotation {0 sending message 1}}
s 4.000000000 _0_ AGT  --- 24 message 500 [0 0 0 0] ------- [0:8 7:7 32 0] 
s 4.000000000 _0_ AGT  --- 25 message 500 [0 0 0 0] ------- [0:8 8:7 32 0] 
v 4 eval {set sim_annotation {2 sending message 2}}
s 4.000000000 _2_ AGT  --- 26 message 500 [0 0 0 0] ------- [2:8 7:8 32 0] 
s 4.000000000 _2_ AGT  --- 27 message 500 [0 0 0 0] ------- [2:8 8:8 32 0] 
s 4.000355000 _0_ MAC  --- 0 RTS 44 [13ee 7 0 0] 
r 4.000707507 _7_ MAC  --- 0 RTS 44 [13ee 7 0 0] 
s 4.000717507 _7_ MAC  --- 0 CTS 38 [12b4 0 0 0] 
r 4.001022014 _0_ MAC  --- 0 CTS 38 [12b4 0 0 0] 
s 4.001032014 _0_ MAC  --- 24 message 558 [13a 7 0 800] ------- [0:8 7:7 32 0] 
r 4.005496521 _7_ MAC  --- 24 message 500 [13a 7 0 800] ------- [0:8 7:7 32 0] 
s 4.005506521 _7_ MAC  --- 0 ACK 38 [0 0 0 0] 
r 4.005521521 _7_ AGT  --- 24 message 500 [13a 7 0 800] ------- [0:8 7:7 32 0] 
r 4.005811028 _0_ MAC  --- 0 ACK 38 [0 0 0 0] 
s 4.005861028 _0_ MAC  --- 0 RTS 44 [13ee 8 0 0] 
r 4.006213587 _8_ MAC  --- 0 RTS 44 [13ee 8 0 0] 
s 4.006223587 _8_ MAC  --- 0 CTS 38 [12b4 0 0 0] 
r 4.006528146 _0_ MAC  --- 0 CTS 38 [12b4 0 0 0] 
s 4.006538146 _0_ MAC  --- 25 message 558 [13a 8 0 800] ------- [0:8 8:7 32 0] 
r 4.011002705 _8_ MAC  --- 25 message 500 [13a 8 0 800] ------- [0:8 8:7 32 0] 
s 4.011012705 _8_ MAC  --- 0 ACK 38 [0 0 0 0] 
r 4.011027705 _8_ AGT  --- 25 message 500 [13a 8 0 800] ------- [0:8 8:7 32 0] 
v 4.0110277046384901 eval {set sim_annotation {8 received redundant message 1 from 0}}
r 4.011317264 _0_ MAC  --- 0 ACK 38 [0 0 0 0] 
s 4.011567077 _2_ MAC  --- 0 RTS 44 [13ee 7 2 0] 
r 4.011919411 _7_ MAC  --- 0 RTS 44 [13ee 7 2 0] 
s 4.011929411 _7_ MAC  --- 0 CTS 38 [12b4 2 0 0] 
r 4.012233744 _2_ MAC  --- 0 CTS 38 [12b4 2 0 0] 
s 4.012243744 _2_ MAC  --- 26 message 558 [13a 7 2 800] ------- [2:8 7:8 32 0] 
r 4.016708077 _7_ MAC  --- 26 message 500 [13a 7 2 800] ------- [2:8 7:8 32 0] 
s 4.016718077 _7_ MAC  --- 0 ACK 38 [0 2 0 0] 
r 4.016733077 _7_ AGT  --- 26 message 500 [13a 7 2 800] ------- [2:8 7:8 32 0] 
r 4.017022411 _2_ MAC  --- 0 ACK 38 [0 2 0 0] 
s 4.017392411 _2_ MAC  --- 0 RTS 44 [13ee 8 2 0] 
r 4.017744783 _8_ MAC  --- 0 RTS 44 [13ee 8 2 0] 
s 4.017754783 _8_ MAC  --- 0 CTS 38 [12b4 2 0 0] 
r 4.018059156 _2_ MAC  --- 0 CTS 38 [12b4 2 0 0] 
s 4.018069156 _2_ MAC  --- 27 message 558 [13a 8 2 800] ------- [2:8 8:8 32 0] 
r 4.022533529 _8_ MAC  --- 27 message 500 [13a 8 2 800] ------- [2:8 8:8 32 0] 
s 4.022543529 _8_ MAC  --- 0 ACK 38 [0 2 0 0] 
r 4.022558529 _8_ AGT  --- 27 message 500 [13a 8 2 800] ------- [2:8 8:8 32 0] 
r 4.022847901 _2_ MAC  --- 0 ACK 38 [0 2 0 0] 
v 5 eval {set sim_annotation {0 sending message 1}}
s 5.000000000 _0_ AGT  --- 28 message 500 [0 0 0 0] ------- [0:8 7:7 32 0] 
s 5.000000000 _0_ AGT  --- 29 message 500 [0 0 0 0] ------- [0:8 8:7 32 0] 
v 5 eval {set sim_annotation {2 sending message 2}}
s 5.000000000 _2_ AGT  --- 30 message 500 [0 0 0 0] ------- [2:8 7:8 32 0] 
s 5.000000000 _2_ AGT  --- 31 message 500 [0 0 0 0] ------- [2:8 8:8 32 0] 
s 5.000155000 _2_ MAC  --- 0 RTS 44 [13ee 7 2 0] 
r 5.000507333 _7_ MAC  --- 0 RTS 44 [13ee 7 2 0] 
s 5.000517333 _7_ MAC  --- 0 CTS 38 [12b4 2 0 0] 
r 5.000821667 _2_ MAC  --- 0 CTS 38 [12b4 2 0 0] 
s 5.000831667 _2_ MAC  --- 30 message 558 [13a 7 2 800] ------- [2:8 7:8 32 0] 
r 5.005296000 _7_ MAC  --- 30 message 500 [13a 7 2 800] ------- [2:8 7:8 32 0] 
s 5.005306000 _7_ MAC  --- 0 ACK 38 [0 2 0 0] 
r 5.005321000 _7_ AGT  --- 30 message 500 [13a 7 2 800] ------- [2:8 7:8 32 0] 
r 5.005610333 _2_ MAC  --- 0 ACK 38 [0 2 0 0] 
s 5.005800507 _0_ MAC  --- 0 RTS 44 [13ee 7 0 0] 
r 5.006153014 _7_ MAC  --- 0 RTS 44 [13ee 7 0 0] 
s 5.006163014 _7_ MAC  --- 0 CTS 38 [12b4 0 0 0] 
r 5.006467521 _0_ MAC  --- 0 CTS 38 [12b4 0 0 0] 
s 5.006477521 _0_ MAC  --- 28 message 558 [13a 7 0 800] ------- [0:8 7:7 32 0] 
r 5.010942028 _7_ MAC  --- 28 message 500 [13a 7 0 800] ------- [0:8 7:7 32 0] 
s 5.010952028 _7_ MAC  --- 0 ACK 38 [0 0 0 0] 
r 5.010967028 _7_ AGT  --- 28 message 500 [13a 7 0 800] ------- [0:8 7:7 32 0] 
r 5.011256534 _0_ MAC  --- 0 ACK 38 [0 0 0 0] 
s 5.011306534 _0_ MAC  --- 0 RTS 44 [13ee 8 0 0] 
r 5.011659094 _8_ MAC  --- 0 RTS 44 [13ee 8 0 0] 
s 5.011669094 _8_ MAC  --- 0 CTS 38 [12b4 0 0 0] 
r 5.011973653 _0_ MAC  --- 0 CTS 38 [12b4 0 0 0] 
s 5.011983653 _0_ MAC  --- 29 message 558 [13a 8 0 800] ------- [0:8 8:7 32 0] 
r 5.016448212 _8_ MAC  --- 29 message 500 [13a 8 0 800] ------- [0:8 8:7 32 0] 
s 5.016458212 _8_ MAC  --- 0 ACK 38 [0 0 0 0] 
r 5.016473212 _8_ AGT  --- 29 message 500 [13a 8 0 800] ------- [0:8 8:7 32 0] 
v 5.0164732115353665 eval {set sim_annotation {8 received redundant message 1 from 0}}
r 5.016762771 _0_ MAC  --- 0 ACK 38 [0 0 0 0] 
s 5.016972584 _2_ MAC  --- 0 RTS 44 [13ee 8 2 0] 
r 5.017324957 _8_ MAC  --- 0 RTS 44 [13ee 8 2 0] 
s 5.017334957 _8_ MAC  --- 0 CTS 38 [12b4 2 0 0] 
r 5.017639330 _2_ MAC  --- 0 CTS 38 [12b4 2 0 0] 
s 5.017649330 _2_ MAC  --- 31 message 558 [13a 8 2 800] ------- [2:8 8:8 32 0] 
r 5.022113702 _8_ MAC  --- 31 message 500 [13a 8 2 800] ------- [2:8 8:8 32 0] 
s 5.022123702 _8_ MAC  --- 0 ACK 38 [0 2 0 0] 
r 5.022138702 _8_ AGT  --- 31 message 500 [13a 8 2 800] ------- [2:8 8:8 32 0] 
r 5.022428075 _2_ MAC  --- 0 ACK 38 [0 2 0 0] 
v 6 eval {set sim_annotation {0 sending message 1}}
s 6.000000000 _0_ AGT  --- 32 message 500 [0 0 0 0] ------- [0:8 7:7 32 0] 
s 6.000000000 _0_ AGT  --- 33 message 500 [0 0 0 0] ------- [0:8 8:7 32 0] 
v 6 eval {set sim_annotation {2 sending message 2}}
s 6.000000000 _2_ AGT  --- 34 message 500 [0 0 0 0] ------- [2:8 7:8 32 0] 
s 6.000000000 _2_ AGT  --- 35 message 500 [0 0 0 0] ------- [2:8 8:8 32 0] 
s 6.000095000 _2_ MAC  --- 0 RTS 44 [13ee 7 2 0] 
r 6.000447333 _7_ MAC  --- 0 RTS 44 [13ee 7 2 0] 
s 6.000457333 _7_ MAC  --- 0 CTS 38 [12b4 2 0 0] 
r 6.000761667 _2_ MAC  --- 0 CTS 38 [12b4 2 0 0] 
s 6.000771667 _2_ MAC  --- 34 message 558 [13a 7 2 800] ------- [2:8 7:8 32 0] 
r 6.005236000 _7_ MAC  --- 34 message 500 [13a 7 2 800] ------- [2:8 7:8 32 0] 
s 6.005246000 _7_ MAC  --- 0 ACK 38 [0 2 0 0] 
r 6.005261000 _7_ AGT  --- 34 message 500 [13a 7 2 800] ------- [2:8 7:8 32 0] 
r 6.005550333 _2_ MAC  --- 0 ACK 38 [0 2 0 0] 
s 6.005860507 _0_ MAC  --- 0 RTS 44 [13ee 7 0 0] 
r 6.006213014 _7_ MAC  --- 0 RTS 44 [13ee 7 0 0] 
s 6.006223014 _7_ MAC  --- 0 CTS 38 [12b4 0 0 0] 
r 6.006527521 _0_ MAC  --- 0 CTS 38 [12b4 0 0 0] 
s 6.006537521 _0_ MAC  --- 32 message 558 [13a 7 0 800] ------- [0:8 7:7 32 0] 
r 6.011002028 _7_ MAC  --- 32 message 500 [13a 7 0 800] ------- [0:8 7:7 32 0] 
s 6.011012028 _7_ MAC  --- 0 ACK 38 [0 0 0 0] 
r 6.011027028 _7_ AGT  --- 32 message 500 [13a 7 0 800] ------- [0:8 7:7 32 0] 
r 6.011316534 _0_ MAC  --- 0 ACK 38 [0 0 0 0] 
s 6.011586361 _2_ MAC  --- 0 RTS 44 [13ee 8 2 0] 
r 6.011938734 _8_ MAC  --- 0 RTS 44 [13ee 8 2 0] 
s 6.011948734 _8_ MAC  --- 0 CTS 38 [12b4 2 0 0] 
r 6.012253106 _2_ MAC  --- 0 CTS 38 [12b4 2 0 0] 
s 6.012263106 _2_ MAC  --- 35 message 558 [13a 8 2 800] ------- [2:8 8:8 32 0] 
r 6.016727479 _8_ MAC  --- 35 message 500 [13a 8 2 800] ------- [2:8 8:8 32 0] 
s 6.016737479 _8_ MAC  --- 0 ACK 38 [0 2 0 0] 
r 6.016752479 _8_ AGT  --- 35 message 500 [13a 8 2 800] ------- [2:8 8:8 32 0] 
r 6.017041852 _2_ MAC  --- 0 ACK 38 [0 2 0 0] 
s 6.017112038 _0_ MAC  --- 0 RTS 44 [13ee 8 0 0] 
r 6.017464597 _8_ MAC  --- 0 RTS 44 [13ee 8 0 0] 
s 6.017474597 _8_ MAC  --- 0 CTS 38 [12b4 0 0 0] 
r 6.017779156 _0_ MAC  --- 0 CTS 38 [12b4 0 0 0] 
s 6.017789156 _0_ MAC  --- 33 message 558 [13a 8 0 800] ------- [0:8 8:7 32 0] 
r 6.022253715 _8_ MAC  --- 33 message 500 [13a 8 0 800] ------- [0:8 8:7 32 0] 
s 6.022263715 _8_ MAC  --- 0 ACK 38 [0 0 0 0] 
r 6.022278715 _8_ AGT  --- 33 message 500 [13a 8 0 800] ------- [0:8 8:7 32 0] 
v 6.0222787150228037 eval {set sim_annotation {8 received redundant message 1 from 0}}
r 6.022568274 _0_ MAC  --- 0 ACK 38 [0 0 0 0] 
v 7 eval {set sim_annotation {0 sending message 1}}
s 7.000000000 _0_ AGT  --- 36 message 500 [0 0 0 0] ------- [0:8 7:7 32 0] 
s 7.000000000 _0_ AGT  --- 37 message 500 [0 0 0 0] ------- [0:8 8:7 32 0] 
v 7 eval {set sim_annotation {2 sending message 2}}
s 7.000000000 _2_ AGT  --- 38 message 500 [0 0 0 0] ------- [2:8 7:8 32 0] 
s 7.000000000 _2_ AGT  --- 39 message 500 [0 0 0 0] ------- [2:8 8:8 32 0] 
s 7.000115000 _0_ MAC  --- 0 RTS 44 [13ee 7 0 0] 
r 7.000467507 _7_ MAC  --- 0 RTS 44 [13ee 7 0 0] 
s 7.000477507 _7_ MAC  --- 0 CTS 38 [12b4 0 0 0] 
r 7.000782014 _0_ MAC  --- 0 CTS 38 [12b4 0 0 0] 
s 7.000792014 _0_ MAC  --- 36 message 558 [13a 7 0 800] ------- [0:8 7:7 32 0] 
r 7.005256521 _7_ MAC  --- 36 message 500 [13a 7 0 800] ------- [0:8 7:7 32 0] 
s 7.005266521 _7_ MAC  --- 0 ACK 38 [0 0 0 0] 
r 7.005281521 _7_ AGT  --- 36 message 500 [13a 7 0 800] ------- [0:8 7:7 32 0] 
r 7.005571028 _0_ MAC  --- 0 ACK 38 [0 0 0 0] 
s 7.005741028 _0_ MAC  --- 0 RTS 44 [13ee 8 0 0] 