n -t * -s 0  -x 50 -y 0 -Z 0 -z 30  -v circle -c black
n -t * -s 1  -x 0 -y 50 -Z 0 -z 30  -v circle -c black
n -t * -s 2  -x 100 -y 25 -Z 0 -z 30  -v circle -c black
n -t * -s 3  -x 50 -y 100 -Z 0 -z 30  -v circle -c black
n -t * -s 4  -x 100 -y 75 -Z 0 -z 30  -v circle -c black
n -t * -s 5  -x 150 -y 25 -Z 0 -z 30  -v circle -c black
n -t * -s 6  -x 150 -y 75 -Z 0 -z 30  -v circle -c black
n -t * -s 7  -x 200 -y 25 -Z 0 -z 30  -v circle -c black
n -t * -s 8  -x 200 -y 75 -Z 0 -z 30  -v circle -c black
V -t * -v 1.0a5 -a 0
W -t * -x 700 -y 200
A -t * -n 1 -p 0 -o 0x7fffffff -c 30 -a 1
A -t * -h 1 -m 1073741823 -s 0
v -t 0 -e sim_annotation 0 1 0 sending message 1
+ -t 0.000000000 -s 0 -d -1 -p message -e 500 -c 2 -a 0 -i 0 -k AGT 
- -t 0.000000000 -s 0 -d -1 -p message -e 500 -c 2 -a 0 -i 0 -k AGT
h -t 0.000000000 -s 0 -d -1 -p message -e 500 -c 2 -a 0 -i 0 -k AGT
+ -t 0.000000000 -s 0 -d -1 -p message -e 500 -c 2 -a 0 -i 1 -k AGT 
- -t 0.000000000 -s 0 -d -1 -p message -e 500 -c 2 -a 0 -i 1 -k AGT
h -t 0.000000000 -s 0 -d -1 -p message -e 500 -c 2 -a 0 -i 1 -k AGT
v -t 0 -e sim_annotation 0 2 3 sending message 2
+ -t 0.000000000 -s 3 -d -1 -p message -e 500 -c 2 -a 0 -i 2 -k AGT 
- -t 0.000000000 -s 3 -d -1 -p message -e 500 -c 2 -a 0 -i 2 -k AGT
h -t 0.000000000 -s 3 -d -1 -p message -e 500 -c 2 -a 0 -i 2 -k AGT
+ -t 0.000000000 -s 3 -d -1 -p message -e 500 -c 2 -a 0 -i 3 -k AGT 
- -t 0.000000000 -s 3 -d -1 -p message -e 500 -c 2 -a 0 -i 3 -k AGT
h -t 0.000000000 -s 3 -d -1 -p message -e 500 -c 2 -a 0 -i 3 -k AGT
+ -t 0.000095000 -s 3 -d -1 -p ARP -e 86 -c 2 -a 0 -i 0 -k MAC 
- -t 0.000095000 -s 3 -d -1 -p ARP -e 86 -c 2 -a 0 -i 0 -k MAC
h -t 0.000095000 -s 3 -d -1 -p ARP -e 86 -c 2 -a 0 -i 0 -k MAC
r -t 0.000783186 -s 4 -d -1 -p ARP -e 28 -c 2 -a 0 -i 0 -k MAC
r -t 0.000783236 -s 1 -d -1 -p ARP -e 28 -c 2 -a 0 -i 0 -k MAC
r -t 0.000783300 -s 2 -d -1 -p ARP -e 28 -c 2 -a 0 -i 0 -k MAC
r -t 0.000783333 -s 0 -d -1 -p ARP -e 28 -c 2 -a 0 -i 0 -k MAC
r -t 0.000783344 -s 6 -d -1 -p ARP -e 28 -c 2 -a 0 -i 0 -k MAC
r -t 0.000783417 -s 5 -d -1 -p ARP -e 28 -c 2 -a 0 -i 0 -k MAC
r -t 0.000783507 -s 8 -d -1 -p ARP -e 28 -c 2 -a 0 -i 0 -k MAC
r -t 0.000783559 -s 7 -d -1 -p ARP -e 28 -c 2 -a 0 -i 0 -k MAC
+ -t 0.001138559 -s 7 -d -1 -p RTS -e 44 -c 2 -a 0 -i 0 -k MAC 
- -t 0.001138559 -s 7 -d -1 -p RTS -e 44 -c 2 -a 0 -i 0 -k MAC
h -t 0.001138559 -s 7 -d -1 -p RTS -e 44 -c 2 -a 0 -i 0 -k MAC
r -t 0.001491118 -s 3 -d -1 -p RTS -e 44 -c 2 -a 0 -i 0 -k MAC
+ -t 0.001501118 -s 3 -d -1 -p CTS -e 38 -c 2 -a 0 -i 0 -k MAC 
- -t 0.001501118 -s 3 -d -1 -p CTS -e 38 -c 2 -a 0 -i 0 -k MAC
h -t 0.001501118 -s 3 -d -1 -p CTS -e 38 -c 2 -a 0 -i 0 -k MAC
r -t 0.001805677 -s 7 -d -1 -p CTS -e 38 -c 2 -a 0 -i 0 -k MAC
+ -t 0.001815677 -s 7 -d -1 -p ARP -e 86 -c 2 -a 0 -i 0 -k MAC 
- -t 0.001815677 -s 7 -d -1 -p ARP -e 86 -c 2 -a 0 -i 0 -k MAC
h -t 0.001815677 -s 7 -d -1 -p ARP -e 86 -c 2 -a 0 -i 0 -k MAC
r -t 0.002504236 -s 3 -d -1 -p ARP -e 28 -c 2 -a 0 -i 0 -k MAC
+ -t 0.002514236 -s 3 -d -1 -p ACK -e 38 -c 2 -a 0 -i 0 -k MAC 
- -t 0.002514236 -s 3 -d -1 -p ACK -e 38 -c 2 -a 0 -i 0 -k MAC
h -t 0.002514236 -s 3 -d -1 -p ACK -e 38 -c 2 -a 0 -i 0 -k MAC
r -t 0.002818795 -s 7 -d -1 -p ACK -e 38 -c 2 -a 0 -i 0 -k MAC
+ -t 0.002988569 -s 0 -d -1 -p ARP -e 86 -c 2 -a 0 -i 0 -k MAC 
- -t 0.002988569 -s 0 -d -1 -p ARP -e 86 -c 2 -a 0 -i 0 -k MAC
h -t 0.002988569 -s 0 -d -1 -p ARP -e 86 -c 2 -a 0 -i 0 -k MAC
r -t 0.003676756 -s 2 -d -1 -p ARP -e 28 -c 2 -a 0 -i 0 -k MAC
r -t 0.003676805 -s 1 -d -1 -p ARP -e 28 -c 2 -a 0 -i 0 -k MAC
r -t 0.003676870 -s 4 -d -1 -p ARP -e 28 -c 2 -a 0 -i 0 -k MAC
r -t 0.003676903 -s 3 -d -1 -p ARP -e 28 -c 2 -a 0 -i 0 -k MAC
r -t 0.003676913 -s 5 -d -1 -p ARP -e 28 -c 2 -a 0 -i 0 -k MAC
r -t 0.003676986 -s 6 -d -1 -p ARP -e 28 -c 2 -a 0 -i 0 -k MAC
r -t 0.003677076 -s 7 -d -1 -p ARP -e 28 -c 2 -a 0 -i 0 -k MAC
r -t 0.003677128 -s 8 -d -1 -p ARP -e 28 -c 2 -a 0 -i 0 -k MAC
+ -t 0.003726569 -s 0 -d -1 -p ARP -e 86 -c 2 -a 0 -i 0 -k MAC 
- -t 0.003726569 -s 0 -d -1 -p ARP -e 86 -c 2 -a 0 -i 0 -k MAC
h -t 0.003726569 -s 0 -d -1 -p ARP -e 86 -c 2 -a 0 -i 0 -k MAC
r -t 0.004414756 -s 2 -d -1 -p ARP -e 28 -c 2 -a 0 -i 0 -k MAC
r -t 0.004414805 -s 1 -d -1 -p ARP -e 28 -c 2 -a 0 -i 0 -k MAC
r -t 0.004414870 -s 4 -d -1 -p ARP -e 28 -c 2 -a 0 -i 0 -k MAC
r -t 0.004414903 -s 3 -d -1 -p ARP -e 28 -c 2 -a 0 -i 0 -k MAC
r -t 0.004414913 -s 5 -d -1 -p ARP -e 28 -c 2 -a 0 -i 0 -k MAC
r -t 0.004414986 -s 6 -d -1 -p ARP -e 28 -c 2 -a 0 -i 0 -k MAC
r -t 0.004415076 -s 7 -d -1 -p ARP -e 28 -c 2 -a 0 -i 0 -k MAC
r -t 0.004415128 -s 8 -d -1 -p ARP -e 28 -c 2 -a 0 -i 0 -k MAC
+ -t 0.004604903 -s 3 -d -1 -p ARP -e 86 -c 2 -a 0 -i 0 -k MAC 
- -t 0.004604903 -s 3 -d -1 -p ARP -e 86 -c 2 -a 0 -i 0 -k MAC
h -t 0.004604903 -s 3 -d -1 -p ARP -e 86 -c 2 -a 0 -i 0 -k MAC
r -t 0.005293089 -s 4 -d -1 -p ARP -e 28 -c 2 -a 0 -i 0 -k MAC
r -t 0.005293138 -s 1 -d -1 -p ARP -e 28 -c 2 -a 0 -i 0 -k MAC
r -t 0.005293203 -s 2 -d -1 -p ARP -e 28 -c 2 -a 0 -i 0 -k MAC
r -t 0.005293236 -s 0 -d -1 -p ARP -e 28 -c 2 -a 0 -i 0 -k MAC
r -t 0.005293246 -s 6 -d -1 -p ARP -e 28 -c 2 -a 0 -i 0 -k MAC
r -t 0.005293319 -s 5 -d -1 -p ARP -e 28 -c 2 -a 0 -i 0 -k MAC
r -t 0.005293410 -s 8 -d -1 -p ARP -e 28 -c 2 -a 0 -i 0 -k MAC
r -t 0.005293462 -s 7 -d -1 -p ARP -e 28 -c 2 -a 0 -i 0 -k MAC
+ -t 0.005403462 -s 7 -d -1 -p RTS -e 44 -c 2 -a 0 -i 0 -k MAC 
- -t 0.005403462 -s 7 -d -1 -p RTS -e 44 -c 2 -a 0 -i 0 -k MAC
h -t 0.005403462 -s 7 -d -1 -p RTS -e 44 -c 2 -a 0 -i 0 -k MAC
r -t 0.005755969 -s 0 -d -1 -p RTS -e 44 -c 2 -a 0 -i 0 -k MAC
+ -t 0.005765969 -s 0 -d -1 -p CTS -e 38 -c 2 -a 0 -i 0 -k MAC 
- -t 0.005765969 -s 0 -d -1 -p CTS -e 38 -c 2 -a 0 -i 0 -k MAC
h -t 0.005765969 -s 0 -d -1 -p CTS -e 38 -c 2 -a 0 -i 0 -k MAC
r -t 0.006070476 -s 7 -d -1 -p CTS -e 38 -c 2 -a 0 -i 0 -k MAC
+ -t 0.006080476 -s 7 -d -1 -p ARP -e 86 -c 2 -a 0 -i 0 -k MAC 
- -t 0.006080476 -s 7 -d -1 -p ARP -e 86 -c 2 -a 0 -i 0 -k MAC
h -t 0.006080476 -s 7 -d -1 -p ARP -e 86 -c 2 -a 0 -i 0 -k MAC
r -t 0.006768982 -s 0 -d -1 -p ARP -e 28 -c 2 -a 0 -i 0 -k MAC
+ -t 0.006778982 -s 0 -d -1 -p ACK -e 38 -c 2 -a 0 -i 0 -k MAC 
- -t 0.006778982 -s 0 -d -1 -p ACK -e 38 -c 2 -a 0 -i 0 -k MAC
h -t 0.006778982 -s 0 -d -1 -p ACK -e 38 -c 2 -a 0 -i 0 -k MAC
r -t 0.007083489 -s 7 -d -1 -p ACK -e 38 -c 2 -a 0 -i 0 -k MAC
+ -t 0.007153541 -s 8 -d -1 -p RTS -e 44 -c 2 -a 0 -i 0 -k MAC 
- -t 0.007153541 -s 8 -d -1 -p RTS -e 44 -c 2 -a 0 -i 0 -k MAC
h -t 0.007153541 -s 8 -d -1 -p RTS -e 44 -c 2 -a 0 -i 0 -k MAC
r -t 0.007506100 -s 0 -d -1 -p RTS -e 44 -c 2 -a 0 -i 0 -k MAC
+ -t 0.007516100 -s 0 -d -1 -p CTS -e 38 -c 2 -a 0 -i 0 -k MAC 
- -t 0.007516100 -s 0 -d -1 -p CTS -e 38 -c 2 -a 0 -i 0 -k MAC
h -t 0.007516100 -s 0 -d -1 -p CTS -e 38 -c 2 -a 0 -i 0 -k MAC
r -t 0.007820659 -s 8 -d -1 -p CTS -e 38 -c 2 -a 0 -i 0 -k MAC
+ -t 0.007830659 -s 8 -d -1 -p ARP -e 86 -c 2 -a 0 -i 0 -k MAC 
- -t 0.007830659 -s 8 -d -1 -p ARP -e 86 -c 2 -a 0 -i 0 -k MAC
h -t 0.007830659 -s 8 -d -1 -p ARP -e 86 -c 2 -a 0 -i 0 -k MAC
r -t 0.008519219 -s 0 -d -1 -p ARP -e 28 -c 2 -a 0 -i 0 -k MAC
+ -t 0.008529219 -s 0 -d -1 -p ACK -e 38 -c 2 -a 0 -i 0 -k MAC 
- -t 0.008529219 -s 0 -d -1 -p ACK -e 38 -c 2 -a 0 -i 0 -k MAC
h -t 0.008529219 -s 0 -d -1 -p ACK -e 38 -c 2 -a 0 -i 0 -k MAC
r -t 0.008833778 -s 8 -d -1 -p ACK -e 38 -c 2 -a 0 -i 0 -k MAC
+ -t 0.009043552 -s 3 -d -1 -p RTS -e 44 -c 2 -a 0 -i 0 -k MAC 
- -t 0.009043552 -s 3 -d -1 -p RTS -e 44 -c 2 -a 0 -i 0 -k MAC
h -t 0.009043552 -s 3 -d -1 -p RTS -e 44 -c 2 -a 0 -i 0 -k MAC
r -t 0.009396111 -s 7 -d -1 -p RTS -e 44 -c 2 -a 0 -i 0 -k MAC
+ -t 0.009406111 -s 7 -d -1 -p CTS -e 38 -c 2 -a 0 -i 0 -k MAC 
- -t 0.009406111 -s 7 -d -1 -p CTS -e 38 -c 2 -a 0 -i 0 -k MAC
h -t 0.009406111 -s 7 -d -1 -p CTS -e 38 -c 2 -a 0 -i 0 -k MAC
r -t 0.009710670 -s 3 -d -1 -p CTS -e 38 -c 2 -a 0 -i 0 -k MAC
+ -t 0.009720670 -s 3 -d -1 -p message -e 558 -c 2 -a 0 -i 2 -k MAC 
- -t 0.009720670 -s 3 -d -1 -p message -e 558 -c 2 -a 0 -i 2 -k MAC
h -t 0.009720670 -s 3 -d -1 -p message -e 558 -c 2 -a 0 -i 2 -k MAC
r -t 0.014185229 -s 7 -d -1 -p message -e 500 -c 2 -a 0 -i 2 -k MAC
+ -t 0.014195229 -s 7 -d -1 -p ACK -e 38 -c 2 -a 0 -i 0 -k MAC 
- -t 0.014195229 -s 7 -d -1 -p ACK -e 38 -c 2 -a 0 -i 0 -k MAC
h -t 0.014195229 -s 7 -d -1 -p ACK -e 38 -c 2 -a 0 -i 0 -k MAC
r -t 0.014210229 -s 7 -d -1 -p message -e 500 -c 2 -a 0 -i 2 -k AGT
v -t 0.0142102288945651 -e sim_annotation 0.0142102288945651 3 7 received {2:second_message} from 3
v -t 0.0142102288945651 -e sim_annotation 0.0142102288945651 4 7 sending message 2
+ -t 0.014210229 -s 7 -d -1 -p message -e 500 -c 2 -a 0 -i 4 -k AGT 
- -t 0.014210229 -s 7 -d -1 -p message -e 500 -c 2 -a 0 -i 4 -k AGT
h -t 0.014210229 -s 7 -d -1 -p message -e 500 -c 2 -a 0 -i 4 -k AGT
r -t 0.014210229 -s 7 -d -1 -p message -e 500 -c 2 -a 0 -i 4 -k AGT
+ -t 0.014210229 -s 7 -d -1 -p message -e 500 -c 2 -a 0 -i 5 -k AGT 
- -t 0.014210229 -s 7 -d -1 -p message -e 500 -c 2 -a 0 -i 5 -k AGT
h -t 0.014210229 -s 7 -d -1 -p message -e 500 -c 2 -a 0 -i 5 -k AGT
r -t 0.014499788 -s 3 -d -1 -p ACK -e 38 -c 2 -a 0 -i 0 -k MAC
+ -t 0.014629229 -s 7 -d -1 -p ARP -e 86 -c 2 -a 0 -i 0 -k MAC 
- -t 0.014629229 -s 7 -d -1 -p ARP -e 86 -c 2 -a 0 -i 0 -k MAC
h -t 0.014629229 -s 7 -d -1 -p ARP -e 86 -c 2 -a 0 -i 0 -k MAC
+ -t 0.014629396 -s 8 -d -1 -p RTS -e 44 -c 2 -a 0 -i 0 -k MAC 
- -t 0.014629396 -s 8 -d -1 -p RTS -e 44 -c 2 -a 0 -i 0 -k MAC
h -t 0.014629396 -s 8 -d -1 -p RTS -e 44 -c 2 -a 0 -i 0 -k MAC
d -t 0.014629902 -s 3 -d -1 -p RTS -e 44 -c 2 -a 0 -i 0 -k MAC
d -t 0.015317396 -s 5 -d -1 -p ARP -e 86 -c 2 -a 0 -i 0 -k MAC
d -t 0.015317465 -s 6 -d -1 -p ARP -e 86 -c 2 -a 0 -i 0 -k MAC
d -t 0.015317562 -s 2 -d -1 -p ARP -e 86 -c 2 -a 0 -i 0 -k MAC
d -t 0.015317602 -s 4 -d -1 -p ARP -e 86 -c 2 -a 0 -i 0 -k MAC
d -t 0.015317736 -s 0 -d -1 -p ARP -e 86 -c 2 -a 0 -i 0 -k MAC
d -t 0.015317788 -s 3 -d -1 -p ARP -e 86 -c 2 -a 0 -i 0 -k MAC
d -t 0.015317901 -s 1 -d -1 -p ARP -e 86 -c 2 -a 0 -i 0 -k MAC
+ -t 0.015831736 -s 0 -d -1 -p RTS -e 44 -c 2 -a 0 -i 0 -k MAC 
- -t 0.015831736 -s 0 -d -1 -p RTS -e 44 -c 2 -a 0 -i 0 -k MAC
h -t 0.015831736 -s 0 -d -1 -p RTS -e 44 -c 2 -a 0 -i 0 -k MAC
r -t 0.016184243 -s 7 -d -1 -p RTS -e 44 -c 2 -a 0 -i 0 -k MAC
+ -t 0.016194243 -s 7 -d -1 -p CTS -e 38 -c 2 -a 0 -i 0 -k MAC 
- -t 0.016194243 -s 7 -d -1 -p CTS -e 38 -c 2 -a 0 -i 0 -k MAC
h -t 0.016194243 -s 7 -d -1 -p CTS -e 38 -c 2 -a 0 -i 0 -k MAC
r -t 0.016498750 -s 0 -d -1 -p CTS -e 38 -c 2 -a 0 -i 0 -k MAC
+ -t 0.016508750 -s 0 -d -1 -p message -e 558 -c 2 -a 0 -i 0 -k MAC 
- -t 0.016508750 -s 0 -d -1 -p message -e 558 -c 2 -a 0 -i 0 -k MAC
h -t 0.016508750 -s 0 -d -1 -p message -e 558 -c 2 -a 0 -i 0 -k MAC
r -t 0.020973256 -s 7 -d -1 -p message -e 500 -c 2 -a 0 -i 0 -k MAC
+ -t 0.020983256 -s 7 -d -1 -p ACK -e 38 -c 2 -a 0 -i 0 -k MAC 
- -t 0.020983256 -s 7 -d -1 -p ACK -e 38 -c 2 -a 0 -i 0 -k MAC
h -t 0.020983256 -s 7 -d -1 -p ACK -e 38 -c 2 -a 0 -i 0 -k MAC
r -t 0.020998256 -s 7 -d -1 -p message -e 500 -c 2 -a 0 -i 0 -k AGT
+ -t 0.020998256 -s 7 -d -1 -p message -e 500 -c 2 -a 0 -i 6 -k AGT 
- -t 0.020998256 -s 7 -d -1 -p message -e 500 -c 2 -a 0 -i 6 -k AGT
h -t 0.020998256 -s 7 -d -1 -p message -e 500 -c 2 -a 0 -i 6 -k AGT
r -t 0.020998256 -s 7 -d -1 -p message -e 500 -c 2 -a 0 -i 6 -k AGT
+ -t 0.020998256 -s 7 -d -1 -p message -e 500 -c 2 -a 0 -i 7 -k AGT 
- -t 0.020998256 -s 7 -d -1 -p message -e 500 -c 2 -a 0 -i 7 -k AGT
h -t 0.020998256 -s 7 -d -1 -p message -e 500 -c 2 -a 0 -i 7 -k AGT
d -t 0.020998256 -s 7 -d -1 -p message -e 500 -c 2 -a 0 -i 5 -k IFQ
r -t 0.021287763 -s 0 -d -1 -p ACK -e 38 -c 2 -a 0 -i 0 -k MAC
+ -t 0.021577763 -s 0 -d -1 -p RTS -e 44 -c 2 -a 0 -i 0 -k MAC 
- -t 0.021577763 -s 0 -d -1 -p RTS -e 44 -c 2 -a 0 -i 0 -k MAC
h -t 0.021577763 -s 0 -d -1 -p RTS -e 44 -c 2 -a 0 -i 0 -k MAC
r -t 0.021930322 -s 8 -d -1 -p RTS -e 44 -c 2 -a 0 -i 0 -k MAC
+ -t 0.021940322 -s 8 -d -1 -p CTS -e 38 -c 2 -a 0 -i 0 -k MAC 
- -t 0.021940322 -s 8 -d -1 -p CTS -e 38 -c 2 -a 0 -i 0 -k MAC
h -t 0.021940322 -s 8 -d -1 -p CTS -e 38 -c 2 -a 0 -i 0 -k MAC
r -t 0.022244881 -s 0 -d -1 -p CTS -e 38 -c 2 -a 0 -i 0 -k MAC
+ -t 0.022254881 -s 0 -d -1 -p message -e 558 -c 2 -a 0 -i 1 -k MAC 
- -t 0.022254881 -s 0 -d -1 -p message -e 558 -c 2 -a 0 -i 1 -k MAC
h -t 0.022254881 -s 0 -d -1 -p message -e 558 -c 2 -a 0 -i 1 -k MAC
r -t 0.026719440 -s 8 -d -1 -p message -e 500 -c 2 -a 0 -i 1 -k MAC
+ -t 0.026729440 -s 8 -d -1 -p ACK -e 38 -c 2 -a 0 -i 0 -k MAC 
- -t 0.026729440 -s 8 -d -1 -p ACK -e 38 -c 2 -a 0 -i 0 -k MAC
h -t 0.026729440 -s 8 -d -1 -p ACK -e 38 -c 2 -a 0 -i 0 -k MAC
r -t 0.026744440 -s 8 -d -1 -p message -e 500 -c 2 -a 0 -i 1 -k AGT
v -t 0.0267444404299358 -e sim_annotation 0.0267444404299358 5 8 received {1:first_message} from 0
v -t 0.0267444404299358 -e sim_annotation 0.0267444404299358 6 8 sending message 1
+ -t 0.026744440 -s 8 -d -1 -p message -e 500 -c 2 -a 0 -i 8 -k AGT 
- -t 0.026744440 -s 8 -d -1 -p message -e 500 -c 2 -a 0 -i 8 -k AGT
h -t 0.026744440 -s 8 -d -1 -p message -e 500 -c 2 -a 0 -i 8 -k AGT
+ -t 0.026744440 -s 8 -d -1 -p message -e 500 -c 2 -a 0 -i 9 -k AGT 
- -t 0.026744440 -s 8 -d -1 -p message -e 500 -c 2 -a 0 -i 9 -k AGT
h -t 0.026744440 -s 8 -d -1 -p message -e 500 -c 2 -a 0 -i 9 -k AGT
r -t 0.026744440 -s 8 -d -1 -p message -e 500 -c 2 -a 0 -i 9 -k AGT
r -t 0.027033999 -s 0 -d -1 -p ACK -e 38 -c 2 -a 0 -i 0 -k MAC
+ -t 0.027203607 -s 7 -d -1 -p ARP -e 86 -c 2 -a 0 -i 0 -k MAC 
- -t 0.027203607 -s 7 -d -1 -p ARP -e 86 -c 2 -a 0 -i 0 -k MAC
h -t 0.027203607 -s 7 -d -1 -p ARP -e 86 -c 2 -a 0 -i 0 -k MAC
r -t 0.027891774 -s 5 -d -1 -p ARP -e 28 -c 2 -a 0 -i 0 -k MAC
r -t 0.027891774 -s 8 -d -1 -p ARP -e 28 -c 2 -a 0 -i 0 -k MAC
r -t 0.027891843 -s 6 -d -1 -p ARP -e 28 -c 2 -a 0 -i 0 -k MAC
r -t 0.027891940 -s 2 -d -1 -p ARP -e 28 -c 2 -a 0 -i 0 -k MAC
r -t 0.027891980 -s 4 -d -1 -p ARP -e 28 -c 2 -a 0 -i 0 -k MAC
r -t 0.027892114 -s 0 -d -1 -p ARP -e 28 -c 2 -a 0 -i 0 -k MAC
r -t 0.027892166 -s 3 -d -1 -p ARP -e 28 -c 2 -a 0 -i 0 -k MAC
r -t 0.027892279 -s 1 -d -1 -p ARP -e 28 -c 2 -a 0 -i 0 -k MAC
+ -t 0.028581774 -s 8 -d -1 -p RTS -e 44 -c 2 -a 0 -i 0 -k MAC 
- -t 0.028581774 -s 8 -d -1 -p RTS -e 44 -c 2 -a 0 -i 0 -k MAC
h -t 0.028581774 -s 8 -d -1 -p RTS -e 44 -c 2 -a 0 -i 0 -k MAC
r -t 0.028934281 -s 3 -d -1 -p RTS -e 44 -c 2 -a 0 -i 0 -k MAC
+ -t 0.028944281 -s 3 -d -1 -p CTS -e 38 -c 2 -a 0 -i 0 -k MAC 
- -t 0.028944281 -s 3 -d -1 -p CTS -e 38 -c 2 -a 0 -i 0 -k MAC
h -t 0.028944281 -s 3 -d -1 -p CTS -e 38 -c 2 -a 0 -i 0 -k MAC
r -t 0.029248788 -s 8 -d -1 -p CTS -e 38 -c 2 -a 0 -i 0 -k MAC
+ -t 0.029258788 -s 8 -d -1 -p ARP -e 86 -c 2 -a 0 -i 0 -k MAC 
- -t 0.029258788 -s 8 -d -1 -p ARP -e 86 -c 2 -a 0 -i 0 -k MAC
h -t 0.029258788 -s 8 -d -1 -p ARP -e 86 -c 2 -a 0 -i 0 -k MAC
r -t 0.029947294 -s 3 -d -1 -p ARP -e 28 -c 2 -a 0 -i 0 -k MAC
+ -t 0.029957294 -s 3 -d -1 -p ACK -e 38 -c 2 -a 0 -i 0 -k MAC 
- -t 0.029957294 -s 3 -d -1 -p ACK -e 38 -c 2 -a 0 -i 0 -k MAC
h -t 0.029957294 -s 3 -d -1 -p ACK -e 38 -c 2 -a 0 -i 0 -k MAC
r -t 0.030261801 -s 8 -d -1 -p ACK -e 38 -c 2 -a 0 -i 0 -k MAC
+ -t 0.030631801 -s 8 -d -1 -p RTS -e 44 -c 2 -a 0 -i 0 -k MAC 
- -t 0.030631801 -s 8 -d -1 -p RTS -e 44 -c 2 -a 0 -i 0 -k MAC
h -t 0.030631801 -s 8 -d -1 -p RTS -e 44 -c 2 -a 0 -i 0 -k MAC
r -t 0.030983968 -s 7 -d -1 -p RTS -e 44 -c 2 -a 0 -i 0 -k MAC
+ -t 0.030993968 -s 7 -d -1 -p CTS -e 38 -c 2 -a 0 -i 0 -k MAC 
- -t 0.030993968 -s 7 -d -1 -p CTS -e 38 -c 2 -a 0 -i 0 -k MAC
h -t 0.030993968 -s 7 -d -1 -p CTS -e 38 -c 2 -a 0 -i 0 -k MAC
r -t 0.031298135 -s 8 -d -1 -p CTS -e 38 -c 2 -a 0 -i 0 -k MAC
+ -t 0.031308135 -s 8 -d -1 -p message -e 558 -c 2 -a 0 -i 8 -k MAC 
- -t 0.031308135 -s 8 -d -1 -p message -e 558 -c 2 -a 0 -i 8 -k MAC
h -t 0.031308135 -s 8 -d -1 -p message -e 558 -c 2 -a 0 -i 8 -k MAC
r -t 0.035772301 -s 7 -d -1 -p message -e 500 -c 2 -a 0 -i 8 -k MAC
+ -t 0.035782301 -s 7 -d -1 -p ACK -e 38 -c 2 -a 0 -i 0 -k MAC 
- -t 0.035782301 -s 7 -d -1 -p ACK -e 38 -c 2 -a 0 -i 0 -k MAC
h -t 0.035782301 -s 7 -d -1 -p ACK -e 38 -c 2 -a 0 -i 0 -k MAC
r -t 0.035797301 -s 7 -d -1 -p message -e 500 -c 2 -a 0 -i 8 -k AGT
r -t 0.036086468 -s 8 -d -1 -p ACK -e 38 -c 2 -a 0 -i 0 -k MAC
+ -t 0.036156860 -s 3 -d -1 -p RTS -e 44 -c 2 -a 0 -i 0 -k MAC 
- -t 0.036156860 -s 3 -d -1 -p RTS -e 44 -c 2 -a 0 -i 0 -k MAC
h -t 0.036156860 -s 3 -d -1 -p RTS -e 44 -c 2 -a 0 -i 0 -k MAC
r -t 0.036509367 -s 8 -d -1 -p RTS -e 44 -c 2 -a 0 -i 0 -k MAC
+ -t 0.036519367 -s 8 -d -1 -p CTS -e 38 -c 2 -a 0 -i 0 -k MAC 
- -t 0.036519367 -s 8 -d -1 -p CTS -e 38 -c 2 -a 0 -i 0 -k MAC
h -t 0.036519367 -s 8 -d -1 -p CTS -e 38 -c 2 -a 0 -i 0 -k MAC
r -t 0.036823874 -s 3 -d -1 -p CTS -e 38 -c 2 -a 0 -i 0 -k MAC
+ -t 0.036833874 -s 3 -d -1 -p message -e 558 -c 2 -a 0 -i 3 -k MAC 
- -t 0.036833874 -s 3 -d -1 -p message -e 558 -c 2 -a 0 -i 3 -k MAC
h -t 0.036833874 -s 3 -d -1 -p message -e 558 -c 2 -a 0 -i 3 -k MAC
r -t 0.041298381 -s 8 -d -1 -p message -e 500 -c 2 -a 0 -i 3 -k MAC
+ -t 0.041308381 -s 8 -d -1 -p ACK -e 38 -c 2 -a 0 -i 0 -k MAC 
- -t 0.041308381 -s 8 -d -1 -p ACK -e 38 -c 2 -a 0 -i 0 -k MAC
h -t 0.041308381 -s 8 -d -1 -p ACK -e 38 -c 2 -a 0 -i 0 -k MAC
r -t 0.041323381 -s 8 -d -1 -p message -e 500 -c 2 -a 0 -i 3 -k AGT
+ -t 0.041323381 -s 8 -d -1 -p message -e 500 -c 2 -a 0 -i 10 -k AGT 
- -t 0.041323381 -s 8 -d -1 -p message -e 500 -c 2 -a 0 -i 10 -k AGT
h -t 0.041323381 -s 8 -d -1 -p message -e 500 -c 2 -a 0 -i 10 -k AGT
+ -t 0.041323381 -s 8 -d -1 -p message -e 500 -c 2 -a 0 -i 11 -k AGT 
- -t 0.041323381 -s 8 -d -1 -p message -e 500 -c 2 -a 0 -i 11 -k AGT
h -t 0.041323381 -s 8 -d -1 -p message -e 500 -c 2 -a 0 -i 11 -k AGT
r -t 0.041323381 -s 8 -d -1 -p message -e 500 -c 2 -a 0 -i 11 -k AGT
r -t 0.041612888 -s 3 -d -1 -p ACK -e 38 -c 2 -a 0 -i 0 -k MAC
+ -t 0.041842381 -s 8 -d -1 -p ARP -e 86 -c 2 -a 0 -i 0 -k MAC 
- -t 0.041842381 -s 8 -d -1 -p ARP -e 86 -c 2 -a 0 -i 0 -k MAC
h -t 0.041842381 -s 8 -d -1 -p ARP -e 86 -c 2 -a 0 -i 0 -k MAC
r -t 0.042530548 -s 7 -d -1 -p ARP -e 28 -c 2 -a 0 -i 0 -k MAC
r -t 0.042530548 -s 6 -d -1 -p ARP -e 28 -c 2 -a 0 -i 0 -k MAC
r -t 0.042530617 -s 5 -d -1 -p ARP -e 28 -c 2 -a 0 -i 0 -k MAC
r -t 0.042530714 -s 4 -d -1 -p ARP -e 28 -c 2 -a 0 -i 0 -k MAC
r -t 0.042530754 -s 2 -d -1 -p ARP -e 28 -c 2 -a 0 -i 0 -k MAC
r -t 0.042530888 -s 3 -d -1 -p ARP -e 28 -c 2 -a 0 -i 0 -k MAC
r -t 0.042530940 -s 0 -d -1 -p ARP -e 28 -c 2 -a 0 -i 0 -k MAC
r -t 0.042531053 -s 1 -d -1 -p ARP -e 28 -c 2 -a 0 -i 0 -k MAC
+ -t 0.042600381 -s 8 -d -1 -p RTS -e 44 -c 2 -a 0 -i 0 -k MAC 
- -t 0.042600381 -s 8 -d -1 -p RTS -e 44 -c 2 -a 0 -i 0 -k MAC
h -t 0.042600381 -s 8 -d -1 -p RTS -e 44 -c 2 -a 0 -i 0 -k MAC
r -t 0.042952548 -s 7 -d -1 -p RTS -e 44 -c 2 -a 0 -i 0 -k MAC
+ -t 0.042962548 -s 7 -d -1 -p CTS -e 38 -c 2 -a 0 -i 0 -k MAC 
- -t 0.042962548 -s 7 -d -1 -p CTS -e 38 -c 2 -a 0 -i 0 -k MAC
h -t 0.042962548 -s 7 -d -1 -p CTS -e 38 -c 2 -a 0 -i 0 -k MAC
r -t 0.043266714 -s 8 -d -1 -p CTS -e 38 -c 2 -a 0 -i 0 -k MAC
+ -t 0.043276714 -s 8 -d -1 -p message -e 558 -c 2 -a 0 -i 10 -k MAC 
- -t 0.043276714 -s 8 -d -1 -p message -e 558 -c 2 -a 0 -i 10 -k MAC
h -t 0.043276714 -s 8 -d -1 -p message -e 558 -c 2 -a 0 -i 10 -k MAC
r -t 0.047740881 -s 7 -d -1 -p message -e 500 -c 2 -a 0 -i 10 -k MAC
+ -t 0.047750881 -s 7 -d -1 -p ACK -e 38 -c 2 -a 0 -i 0 -k MAC 
- -t 0.047750881 -s 7 -d -1 -p ACK -e 38 -c 2 -a 0 -i 0 -k MAC
h -t 0.047750881 -s 7 -d -1 -p ACK -e 38 -c 2 -a 0 -i 0 -k MAC
r -t 0.047765881 -s 7 -d -1 -p message -e 500 -c 2 -a 0 -i 10 -k AGT
r -t 0.048055048 -s 8 -d -1 -p ACK -e 38 -c 2 -a 0 -i 0 -k MAC
+ -t 0.048344881 -s 7 -d -1 -p RTS -e 44 -c 2 -a 0 -i 0 -k MAC 
- -t 0.048344881 -s 7 -d -1 -p RTS -e 44 -c 2 -a 0 -i 0 -k MAC
h -t 0.048344881 -s 7 -d -1 -p RTS -e 44 -c 2 -a 0 -i 0 -k MAC
r -t 0.048697048 -s 8 -d -1 -p RTS -e 44 -c 2 -a 0 -i 0 -k MAC
+ -t 0.048707048 -s 8 -d -1 -p CTS -e 38 -c 2 -a 0 -i 0 -k MAC 
- -t 0.048707048 -s 8 -d -1 -p CTS -e 38 -c 2 -a 0 -i 0 -k MAC
h -t 0.048707048 -s 8 -d -1 -p CTS -e 38 -c 2 -a 0 -i 0 -k MAC
r -t 0.049011214 -s 7 -d -1 -p CTS -e 38 -c 2 -a 0 -i 0 -k MAC
+ -t 0.049021214 -s 7 -d -1 -p message -e 558 -c 2 -a 0 -i 7 -k MAC 
- -t 0.049021214 -s 7 -d -1 -p message -e 558 -c 2 -a 0 -i 7 -k MAC
h -t 0.049021214 -s 7 -d -1 -p message -e 558 -c 2 -a 0 -i 7 -k MAC
r -t 0.053485381 -s 8 -d -1 -p message -e 500 -c 2 -a 0 -i 7 -k MAC
+ -t 0.053495381 -s 8 -d -1 -p ACK -e 38 -c 2 -a 0 -i 0 -k MAC 
- -t 0.053495381 -s 8 -d -1 -p ACK -e 38 -c 2 -a 0 -i 0 -k MAC
h -t 0.053495381 -s 8 -d -1 -p ACK -e 38 -c 2 -a 0 -i 0 -k MAC
r -t 0.053510381 -s 8 -d -1 -p message -e 500 -c 2 -a 0 -i 7 -k AGT
r -t 0.053799548 -s 7 -d -1 -p ACK -e 38 -c 2 -a 0 -i 0 -k MAC
+ -t 0.054029548 -s 7 -d -1 -p RTS -e 44 -c 2 -a 0 -i 0 -k MAC 
- -t 0.054029548 -s 7 -d -1 -p RTS -e 44 -c 2 -a 0 -i 0 -k MAC
h -t 0.054029548 -s 7 -d -1 -p RTS -e 44 -c 2 -a 0 -i 0 -k MAC
r -t 0.054381714 -s 8 -d -1 -p RTS -e 44 -c 2 -a 0 -i 0 -k MAC
+ -t 0.054391714 -s 8 -d -1 -p CTS -e 38 -c 2 -a 0 -i 0 -k MAC 
- -t 0.054391714 -s 8 -d -1 -p CTS -e 38 -c 2 -a 0 -i 0 -k MAC
h -t 0.054391714 -s 8 -d -1 -p CTS -e 38 -c 2 -a 0 -i 0 -k MAC
r -t 0.054695881 -s 7 -d -1 -p CTS -e 38 -c 2 -a 0 -i 0 -k MAC
+ -t 0.054705881 -s 7 -d -1 -p ARP -e 86 -c 2 -a 0 -i 0 -k MAC 
- -t 0.054705881 -s 7 -d -1 -p ARP -e 86 -c 2 -a 0 -i 0 -k MAC
h -t 0.054705881 -s 7 -d -1 -p ARP -e 86 -c 2 -a 0 -i 0 -k MAC
r -t 0.055394048 -s 8 -d -1 -p ARP -e 28 -c 2 -a 0 -i 0 -k MAC
+ -t 0.055404048 -s 8 -d -1 -p ACK -e 38 -c 2 -a 0 -i 0 -k MAC 
- -t 0.055404048 -s 8 -d -1 -p ACK -e 38 -c 2 -a 0 -i 0 -k MAC
h -t 0.055404048 -s 8 -d -1 -p ACK -e 38 -c 2 -a 0 -i 0 -k MAC
r -t 0.055708214 -s 7 -d -1 -p ACK -e 38 -c 2 -a 0 -i 0 -k MAC
+ -t 0.055798048 -s 8 -d -1 -p RTS -e 44 -c 2 -a 0 -i 0 -k MAC 
- -t 0.055798048 -s 8 -d -1 -p RTS -e 44 -c 2 -a 0 -i 0 -k MAC
h -t 0.055798048 -s 8 -d -1 -p RTS -e 44 -c 2 -a 0 -i 0 -k MAC
r -t 0.056150214 -s 7 -d -1 -p RTS -e 44 -c 2 -a 0 -i 0 -k MAC
+ -t 0.056160214 -s 7 -d -1 -p CTS -e 38 -c 2 -a 0 -i 0 -k MAC 
- -t 0.056160214 -s 7 -d -1 -p CTS -e 38 -c 2 -a 0 -i 0 -k MAC
h -t 0.056160214 -s 7 -d -1 -p CTS -e 38 -c 2 -a 0 -i 0 -k MAC
r -t 0.056464381 -s 8 -d -1 -p CTS -e 38 -c 2 -a 0 -i 0 -k MAC
+ -t 0.056474381 -s 8 -d -1 -p ARP -e 86 -c 2 -a 0 -i 0 -k MAC 
- -t 0.056474381 -s 8 -d -1 -p ARP -e 86 -c 2 -a 0 -i 0 -k MAC
h -t 0.056474381 -s 8 -d -1 -p ARP -e 86 -c 2 -a 0 -i 0 -k MAC
r -t 0.057162548 -s 7 -d -1 -p ARP -e 28 -c 2 -a 0 -i 0 -k MAC
+ -t 0.057172548 -s 7 -d -1 -p ACK -e 38 -c 2 -a 0 -i 0 -k MAC 
- -t 0.057172548 -s 7 -d -1 -p ACK -e 38 -c 2 -a 0 -i 0 -k MAC
h -t 0.057172548 -s 7 -d -1 -p ACK -e 38 -c 2 -a 0 -i 0 -k MAC
r -t 0.057476714 -s 8 -d -1 -p ACK -e 38 -c 2 -a 0 -i 0 -k MAC
v -t 1 -e sim_annotation 1 7 0 sending message 1
+ -t 1.000000000 -s 0 -d -1 -p message -e 500 -c 2 -a 0 -i 12 -k AGT 
- -t 1.000000000 -s 0 -d -1 -p message -e 500 -c 2 -a 0 -i 12 -k AGT
h -t 1.000000000 -s 0 -d -1 -p message -e 500 -c 2 -a 0 -i 12 -k AGT
+ -t 1.000000000 -s 0 -d -1 -p message -e 500 -c 2 -a 0 -i 13 -k AGT 
- -t 1.000000000 -s 0 -d -1 -p message -e 500 -c 2 -a 0 -i 13 -k AGT
h -t 1.000000000 -s 0 -d -1 -p message -e 500 -c 2 -a 0 -i 13 -k AGT
v -t 1 -e sim_annotation 1 8 3 sending message 2
+ -t 1.000000000 -s 3 -d -1 -p message -e 500 -c 2 -a 0 -i 14 -k AGT 
- -t 1.000000000 -s 3 -d -1 -p message -e 500 -c 2 -a 0 -i 14 -k AGT
h -t 1.000000000 -s 3 -d -1 -p message -e 500 -c 2 -a 0 -i 14 -k AGT
+ -t 1.000000000 -s 3 -d -1 -p message -e 500 -c 2 -a 0 -i 15 -k AGT 
- -t 1.000000000 -s 3 -d -1 -p message -e 500 -c 2 -a 0 -i 15 -k AGT
h -t 1.000000000 -s 3 -d -1 -p message -e 500 -c 2 -a 0 -i 15 -k AGT
+ -t 1.000435000 -s 3 -d -1 -p RTS -e 44 -c 2 -a 0 -i 0 -k MAC 
- -t 1.000435000 -s 3 -d -1 -p RTS -e 44 -c 2 -a 0 -i 0 -k MAC
h -t 1.000435000 -s 3 -d -1 -p RTS -e 44 -c 2 -a 0 -i 0 -k MAC
r -t 1.000787559 -s 7 -d -1 -p RTS -e 44 -c 2 -a 0 -i 0 -k MAC
+ -t 1.000797559 -s 7 -d -1 -p CTS -e 38 -c 2 -a 0 -i 0 -k MAC 
- -t 1.000797559 -s 7 -d -1 -p CTS -e 38 -c 2 -a 0 -i 0 -k MAC
h -t 1.000797559 -s 7 -d -1 -p CTS -e 38 -c 2 -a 0 -i 0 -k MAC
r -t 1.001102118 -s 3 -d -1 -p CTS -e 38 -c 2 -a 0 -i 0 -k MAC
+ -t 1.001112118 -s 3 -d -1 -p message -e 558 -c 2 -a 0 -i 14 -k MAC 
- -t 1.001112118 -s 3 -d -1 -p message -e 558 -c 2 -a 0 -i 14 -k MAC
h -t 1.001112118 -s 3 -d -1 -p message -e 558 -c 2 -a 0 -i 14 -k MAC
r -t 1.005576677 -s 7 -d -1 -p message -e 500 -c 2 -a 0 -i 14 -k MAC
+ -t 1.005586677 -s 7 -d -1 -p ACK -e 38 -c 2 -a 0 -i 0 -k MAC 
- -t 1.005586677 -s 7 -d -1 -p ACK -e 38 -c 2 -a 0 -i 0 -k MAC
h -t 1.005586677 -s 7 -d -1 -p ACK -e 38 -c 2 -a 0 -i 0 -k MAC
r -t 1.005601677 -s 7 -d -1 -p message -e 500 -c 2 -a 0 -i 14 -k AGT
v -t 1.00560167705098 -e sim_annotation 1.00560167705098 9 7 received {2:second_message} from 3
v -t 1.00560167705098 -e sim_annotation 1.00560167705098 10 7 sending message 2
r -t 1.005891236 -s 3 -d -1 -p ACK -e 38 -c 2 -a 0 -i 0 -k MAC
+ -t 1.005981236 -s 3 -d -1 -p RTS -e 44 -c 2 -a 0 -i 0 -k MAC 
- -t 1.005981236 -s 3 -d -1 -p RTS -e 44 -c 2 -a 0 -i 0 -k MAC
h -t 1.005981236 -s 3 -d -1 -p RTS -e 44 -c 2 -a 0 -i 0 -k MAC
r -t 1.006333743 -s 8 -d -1 -p RTS -e 44 -c 2 -a 0 -i 0 -k MAC
+ -t 1.006343743 -s 8 -d -1 -p CTS -e 38 -c 2 -a 0 -i 0 -k MAC 
- -t 1.006343743 -s 8 -d -1 -p CTS -e 38 -c 2 -a 0 -i 0 -k MAC
h -t 1.006343743 -s 8 -d -1 -p CTS -e 38 -c 2 -a 0 -i 0 -k MAC
r -t 1.006648250 -s 3 -d -1 -p CTS -e 38 -c 2 -a 0 -i 0 -k MAC
+ -t 1.006658250 -s 3 -d -1 -p message -e 558 -c 2 -a 0 -i 15 -k MAC 
- -t 1.006658250 -s 3 -d -1 -p message -e 558 -c 2 -a 0 -i 15 -k MAC
h -t 1.006658250 -s 3 -d -1 -p message -e 558 -c 2 -a 0 -i 15 -k MAC
r -t 1.011122757 -s 8 -d -1 -p message -e 500 -c 2 -a 0 -i 15 -k MAC
+ -t 1.011132757 -s 8 -d -1 -p ACK -e 38 -c 2 -a 0 -i 0 -k MAC 
- -t 1.011132757 -s 8 -d -1 -p ACK -e 38 -c 2 -a 0 -i 0 -k MAC
h -t 1.011132757 -s 8 -d -1 -p ACK -e 38 -c 2 -a 0 -i 0 -k MAC
r -t 1.011147757 -s 8 -d -1 -p message -e 500 -c 2 -a 0 -i 15 -k AGT
r -t 1.011437264 -s 3 -d -1 -p ACK -e 38 -c 2 -a 0 -i 0 -k MAC
+ -t 1.011627316 -s 0 -d -1 -p RTS -e 44 -c 2 -a 0 -i 0 -k MAC 
- -t 1.011627316 -s 0 -d -1 -p RTS -e 44 -c 2 -a 0 -i 0 -k MAC
h -t 1.011627316 -s 0 -d -1 -p RTS -e 44 -c 2 -a 0 -i 0 -k MAC
r -t 1.011979823 -s 7 -d -1 -p RTS -e 44 -c 2 -a 0 -i 0 -k MAC
+ -t 1.011989823 -s 7 -d -1 -p CTS -e 38 -c 2 -a 0 -i 0 -k MAC 
- -t 1.011989823 -s 7 -d -1 -p CTS -e 38 -c 2 -a 0 -i 0 -k MAC
h -t 1.011989823 -s 7 -d -1 -p CTS -e 38 -c 2 -a 0 -i 0 -k MAC
r -t 1.012294330 -s 0 -d -1 -p CTS -e 38 -c 2 -a 0 -i 0 -k MAC
+ -t 1.012304330 -s 0 -d -1 -p message -e 558 -c 2 -a 0 -i 12 -k MAC 
- -t 1.012304330 -s 0 -d -1 -p message -e 558 -c 2 -a 0 -i 12 -k MAC
h -t 1.012304330 -s 0 -d -1 -p message -e 558 -c 2 -a 0 -i 12 -k MAC
r -t 1.016768836 -s 7 -d -1 -p message -e 500 -c 2 -a 0 -i 12 -k MAC
+ -t 1.016778836 -s 7 -d -1 -p ACK -e 38 -c 2 -a 0 -i 0 -k MAC 
- -t 1.016778836 -s 7 -d -1 -p ACK -e 38 -c 2 -a 0 -i 0 -k MAC
h -t 1.016778836 -s 7 -d -1 -p ACK -e 38 -c 2 -a 0 -i 0 -k MAC
r -t 1.016793836 -s 7 -d -1 -p message -e 500 -c 2 -a 0 -i 12 -k AGT
r -t 1.017083343 -s 0 -d -1 -p ACK -e 38 -c 2 -a 0 -i 0 -k MAC
+ -t 1.017493343 -s 0 -d -1 -p RTS -e 44 -c 2 -a 0 -i 0 -k MAC 
- -t 1.017493343 -s 0 -d -1 -p RTS -e 44 -c 2 -a 0 -i 0 -k MAC
h -t 1.017493343 -s 0 -d -1 -p RTS -e 44 -c 2 -a 0 -i 0 -k MAC
r -t 1.017845902 -s 8 -d -1 -p RTS -e 44 -c 2 -a 0 -i 0 -k MAC
+ -t 1.017855902 -s 8 -d -1 -p CTS -e 38 -c 2 -a 0 -i 0 -k MAC 
- -t 1.017855902 -s 8 -d -1 -p CTS -e 38 -c 2 -a 0 -i 0 -k MAC
h -t 1.017855902 -s 8 -d -1 -p CTS -e 38 -c 2 -a 0 -i 0 -k MAC
r -t 1.018160461 -s 0 -d -1 -p CTS -e 38 -c 2 -a 0 -i 0 -k MAC
+ -t 1.018170461 -s 0 -d -1 -p message -e 558 -c 2 -a 0 -i 13 -k MAC 
- -t 1.018170461 -s 0 -d -1 -p message -e 558 -c 2 -a 0 -i 13 -k MAC
h -t 1.018170461 -s 0 -d -1 -p message -e 558 -c 2 -a 0 -i 13 -k MAC
r -t 1.022635020 -s 8 -d -1 -p message -e 500 -c 2 -a 0 -i 13 -k MAC
+ -t 1.022645020 -s 8 -d -1 -p ACK -e 38 -c 2 -a 0 -i 0 -k MAC 
- -t 1.022645020 -s 8 -d -1 -p ACK -e 38 -c 2 -a 0 -i 0 -k MAC
h -t 1.022645020 -s 8 -d -1 -p ACK -e 38 -c 2 -a 0 -i 0 -k MAC
r -t 1.022660020 -s 8 -d -1 -p message -e 500 -c 2 -a 0 -i 13 -k AGT
v -t 1.0226600204141 -e sim_annotation 1.0226600204141 11 8 received {1:first_message} from 0
v -t 1.0226600204141 -e sim_annotation 1.0226600204141 12 8 sending message 1
r -t 1.022949579 -s 0 -d -1 -p ACK -e 38 -c 2 -a 0 -i 0 -k MAC
v -t 2 -e sim_annotation 2 13 0 sending message 1
+ -t 2.000000000 -s 0 -d -1 -p message -e 500 -c 2 -a 0 -i 16 -k AGT 
- -t 2.000000000 -s 0 -d -1 -p message -e 500 -c 2 -a 0 -i 16 -k AGT
h -t 2.000000000 -s 0 -d -1 -p message -e 500 -c 2 -a 0 -i 16 -k AGT
+ -t 2.000000000 -s 0 -d -1 -p message -e 500 -c 2 -a 0 -i 17 -k AGT 
- -t 2.000000000 -s 0 -d -1 -p message -e 500 -c 2 -a 0 -i 17 -k AGT
h -t 2.000000000 -s 0 -d -1 -p message -e 500 -c 2 -a 0 -i 17 -k AGT
v -t 2 -e sim_annotation 2 14 3 sending message 2
+ -t 2.000000000 -s 3 -d -1 -p message -e 500 -c 2 -a 0 -i 18 -k AGT 
- -t 2.000000000 -s 3 -d -1 -p message -e 500 -c 2 -a 0 -i 18 -k AGT
h -t 2.000000000 -s 3 -d -1 -p message -e 500 -c 2 -a 0 -i 18 -k AGT
+ -t 2.000000000 -s 3 -d -1 -p message -e 500 -c 2 -a 0 -i 19 -k AGT 
- -t 2.000000000 -s 3 -d -1 -p message -e 500 -c 2 -a 0 -i 19 -k AGT
h -t 2.000000000 -s 3 -d -1 -p message -e 500 -c 2 -a 0 -i 19 -k AGT
+ -t 2.000155000 -s 0 -d -1 -p RTS -e 44 -c 2 -a 0 -i 0 -k MAC 
- -t 2.000155000 -s 0 -d -1 -p RTS -e 44 -c 2 -a 0 -i 0 -k MAC
h -t 2.000155000 -s 0 -d -1 -p RTS -e 44 -c 2 -a 0 -i 0 -k MAC
r -t 2.000507507 -s 7 -d -1 -p RTS -e 44 -c 2 -a 0 -i 0 -k MAC
+ -t 2.000517507 -s 7 -d -1 -p CTS -e 38 -c 2 -a 0 -i 0 -k MAC 
- -t 2.000517507 -s 7 -d -1 -p CTS -e 38 -c 2 -a 0 -i 0 -k MAC
h -t 2.000517507 -s 7 -d -1 -p CTS -e 38 -c 2 -a 0 -i 0 -k MAC
r -t 2.000822014 -s 0 -d -1 -p CTS -e 38 -c 2 -a 0 -i 0 -k MAC
+ -t 2.000832014 -s 0 -d -1 -p message -e 558 -c 2 -a 0 -i 16 -k MAC 
- -t 2.000832014 -s 0 -d -1 -p message -e 558 -c 2 -a 0 -i 16 -k MAC